,formula_pretty,formation_energy_per_atom
25850,Cs7(FeS2)4,-1.052317980290381
25851,HXeF7,-1.008692455648148
25852,Rb2Li14Pb3O14,-1.9081369388383833
25853,Ge(SF6)2,-2.25434022875
25854,Rb4YbI6,-1.759956498181818
25855,Nb(GaNi4)3,-0.30751846078124956
25856,CaMg2N2,-0.9418248139999996
25857,SmGeRh,-0.9147191550000002
25858,EuGa3Pd,-0.6557224044999999
25859,Pr2(Al3Rh)3,-0.8057383414285714
25860,BaH5BrO3,-1.6934864142500003
25861,Tm4C7,-0.31445161969697016
25862,MnMoN2,-0.5256875082327603
25863,HfZnNi2,-0.4307055275000007
25864,SrTh2Se5,-2.140260633235677
25865,YInPd,-0.8223868444444449
25866,Ge(BrF5)2,-1.814865668076923
25867,Th2CN,-1.0339679162500008
25868,FeNiAg2F7,-2.0429740137121204
25869,PrIn2Rh,-0.598207285
25870,KAuO2,-1.149285877
25871,Sm2Fe14B,-0.07750431186274528
25872,Na5Ga7H12S13O6,-1.2262867119972936
25873,NaMoO2,-1.8929700841379304
25874,SnHg7(As2I3)2,-0.3315752697222219
25875,Rb2YGa(SiO3)4,-3.1386716495833324
25876,Lu5Pt4,-1.2359294525
25877,CsZn4As3,-0.3053907578663795
25878,Pr(Al5Os)2,-0.4579315903846147
25879,CeBO3,-3.4072985148333332
25880,DyCu4Pd,-0.363255533333333
25881,Pr,0.0
25882,ZnH12N3Cl5,-0.8888514564285719
25883,YCuP2,-0.8696949120833333
25884,ErSnPt,-1.0871057516666665
25885,SmCo2,-0.09547485500000026
25886,Pr2Ti2O7,-3.7170887040151515
25887,Dy2Al6Si4Au,-0.38837252769230773
25888,KRb2CrF6,-3.1085683709
25889,KPd2F5,-1.88016040725
25890,CeZn4Ni,-0.3084506825000002
25891,Tl5Se2Br,-0.681733011731771
25892,NaLaSiO4,-3.322373213555008
25893,HfTaB4,-0.8461937411111116
25894,Pm2MgGe,-0.3773666224999994
25895,K3Sm(AsS4)2,-1.1956068063571428
25896,Mn2N,-0.40379644778735724
25897,NaSn2(PO4)3,-2.530611225086206
25898,Hf6Ga2Fe,-0.3440421205555566
25899,RbLuO2,-3.1052569718749994
25900,NbAlCu,-0.2763553016666667
25901,NaErCl4,-2.535299276091954
25902,La2B3Br,-0.9335774604166662
25903,Zr2Te2P,-1.284446590666667
25904,HgBrO3,-0.39627017799999964
25905,K2RbPrV2O8,-2.6851638298928577
25906,Na19Zr11S30,-1.6955825329705456
25907,Sr5(BiO4)3,-2.382237822666667
25908,Ba5Mn5O14,-2.4921078608189653
25909,BeTe,-0.5703644225000004
25910,Sr2YbMoO6,-2.9921577623333335
25911,Dy(GeRh)2,-0.8798673739999998
25912,Er5P12Ru19,-0.8608485231944437
25913,TaTc2Ge,-0.3116680687500004
25914,Ta5Sb4,-0.2479712611111119
25915,Ho5NiBi2,-0.5691191384374994
25916,BaMg4Ge3,-0.40020832937499984
25917,Sm(Ge2Rh3)2,-0.7428982150000006
25918,NaMoF6,-2.745476567693966
25919,YbPaRu2,-0.3455199050000006
25920,Ce5AgSn3,-0.5081265724074073
25921,K2RbYbV2O8,-2.510553445964286
25922,EuI2,-1.8735359874999997
25923,ErGaPd,-0.8989870774999993
25924,Pr3CBr5,-1.894152349722222
25925,Ca10Si3Pt7,-0.9096704997499998
25926,CaSe,-2.2583177761718742
25927,NdAg2,-0.2796570944444448
25928,Cr4AgBiO14,-1.5357689468333333
25929,CrSBr,-1.1142480468749991
25930,TbSbRh,-1.0708210741666673
25931,SrNdGa3O7,-2.8316139961805553
25932,Pr2MgNi2,-0.2801691030000001
25933,Ti2MnOs,-0.5042751898994258
25934,Na10B18H6O35,-2.5481747076161927
25935,La3Nd(CuO4)2,-3.0567860582142856
25936,Ba12Na15Li8N6,-0.2785484747546954
25937,CaBiO3,-2.2642227315
25938,Zn3WN4,-0.43146142312500047
25939,Na2MnF5,-2.936872955129311
25940,Tm3(P3Pd10)2,-0.7353334241379315
25941,ThTe,-1.3113507650000003
25942,Dy14Ag51,-0.24352798784615376
25943,K2Ag4Se3,-0.6725444244108792
25944,Ba2YbPaO6,-3.453572371
25945,MgTa2N3,-1.3797724791666657
25946,Na15Re7N19,-0.4108150058116058
25947,La4GeO8,-3.5552805675000005
25948,K3GaSe3,-1.2786961176473213
25949,Li3Mn2(SeO3)4,-1.7420666907255746
25950,RbAlF4,-3.638838198083334
25951,Zr6CoSn2,-0.43451420388888884
25952,CaHfTlF7,-3.8125756190833338
25953,Th(Al2Cu)4,-0.28199521307692355
25954,Nd6Ni20P13,-0.8699012085470093
25955,Zr2CN,-1.3816371512499988
25956,RbDyBeF6,-3.896984915277778
25957,NaSi2N3,-1.2068158035919545
25958,TbSiPt2,-1.138284674375
25959,Gd2GaSbO7,-2.969041877954545
25960,Ca2Al2Sn2O9,-2.955365727833334
25961,Ni2Hg2SF6,-1.8514861861931815
25962,Cs2CdI4,-1.3951675758374382
25963,RbVCuF6,-2.7332481722222224
25964,CsTiZnOF5,-3.2081625215293745
25965,Nd2MgNi2,-0.2997504929999998
25966,LaMgAl11O19,-3.4679749010937497
25967,Tb5(In2Pd)2,-0.6863940877272725
25968,Ho3(CuSn)4,-0.4982297709090902
25969,Ca5(PPd)6,-0.9824973129411774
25970,UGePd,-0.4611014183333329
25971,FeCuO2,-1.3211148162499997
25972,Hf3P2,-1.1545881938333338
25973,Pr4Mg3Co2,-0.09169708333333343
25974,Hf2Al3Pd,-0.6314458124999996
25975,EuAl2O4,-3.412565186785714
25976,Ba2LuTaO6,-3.627398592000001
25977,TmMn2O5,-2.660867929066093
25978,Si(Ag4S3)2,-0.3973619656388891
25979,AcEuZn2,-0.2607130118750005
25980,TaNi2Te3,-0.5708809666666662
25981,Dy5BiPt2,-0.9186521843750004
25982,Y2TeO6,-3.004908132592593
25983,Ba2NaReO6,-2.690431438155172
25984,KRb2YF6,-3.587683281466666
25985,Ni3Te2MoO10,-1.5507364849999998
25986,Gd2Ge(BO4)2,-3.175222310833333
25987,Ba2TaTlO6,-2.8166028173333344
25988,Ba2U(AsO5)2,-2.8130795669166675
25989,YbAu4,-0.554486846
25990,Cu2P7,-0.10117498509259251
25991,TmBi2ClO4,-2.4822476858333333
25992,K2MgCl4,-2.262693628
25993,K4H6C2O9,-1.7614581824761906
25994,Rh2(Se3Br2)3,-0.7036441400643378
25995,Gd3Al,-0.21036137500000152
25996,Pm2ZnHg,-0.3814429275000002
25997,YPS,-1.7254572872916671
25998,Sr2FeWO6,-2.6636039073333335
25999,KS3,-0.8962481577812502
26000,Mg2Be3Tl2F12,-3.3421468491666664
26001,Tb2P7Rh12,-0.9239669520634921
26002,Tm(ClO4)3,-0.9811513876041671
26003,YbSnHg,-0.5627812249999998
26004,Mg5As4(H11O13)2,-1.744454104912282
26005,Ho2Mo2C3,-0.3650246114285705
26006,Zr2FeCo3,-0.30498758583333324
26007,AlReSi,-0.45853869499999905
26008,Cs3ScCl6,-2.46004403287931
26009,Sm3W(ClO2)3,-3.110910147692308
26010,LaCo8P5,-0.7241239744047618
26011,Sr2CrWO6,-2.7661155018333323
26012,KTaCl6,-1.9847165922499999
26013,ThTl,-0.15500408833333346
26014,SnF4,-2.7095145449999998
26015,Ba9(RhO3)8,-2.1075422090243903
26016,CaRuO3,-2.2266911914999996
26017,RbMgF3,-3.509512799
26018,LaNiSn2,-0.6536872274999999
26019,Hg3(AsO4)2,-1.243265788461538
26020,CuSO4,-1.5092652146875
26021,EuCl3,-2.3070037412499995
26022,K3Pu(H3O4)2,-1.9275692896666665
26023,TbBr3,-2.2540553793750004
26024,LiGeBO4,-2.4948268210714284
26025,UTlH(SeO4)2,-1.9913406431169869
26026,Sr2InF7,-3.6849865063333334
26027,Rb2B10H6O19,-2.4629192799099098
26028,Cd2B2O5,-2.241527818148148
26029,NbPd2,-0.4247632266666663
26030,LiTaS2,-1.5258548186458336
26031,CsSc(SO4)2,-2.5142367565984194
26032,Ce2Zr2O7,-3.814661757272727
26033,Nd2Zr3(MoO4)9,-2.5277020703000006
26034,Gd2B(OF)3,-3.8846732699074087
26035,Hg3(SI)2,-0.4700528244642856
26036,Na2CaMnAl2P2H2(O5F2)2,-2.9351327561542147
26037,V5Ge3B,-0.45809489435185136
26038,La4Si2Se3O7,-3.2622246729394533
26039,Nd5Te7WCl3O23,-2.3875412928205137
26040,Yb(GaFe)6,-0.2982175473076919
26041,AlV6Ge,-0.2358853693749996
26042,Ba2In2Si3SO10,-2.8893489911458334
26043,Sm2Cu(SeO3)4,-2.0059569991776316
26044,Ba2HRu3O10,-1.9101009890625003
26045,U2AsSe,-0.9929370143359382
26046,Y4Ga12Pt,-0.6340120062745096
26047,La2CeTe4,-1.7791688350000001
26048,YAl2Co,-0.5433686504166673
26049,HfCo3B2,-0.5982321005555554
26050,Sr6Sn12Pt11,-0.7881505453448278
26051,TiFeAs,-0.6730760894444453
26052,CaAgGe,-0.48982201583333346
26053,Sc2Nb3Si4,-0.789005070833331
26054,CsSi2SbO7,-2.7316268431452455
26055,CoF3,-2.1589836700000005
26056,Hg(AsO3)2,-1.468409555
26057,Np(SiPd)2,-0.5820107857499991
26058,YI3,-1.7216208879166666
26059,Er(CuGe)2,-0.4746958719999995
26060,YBrO,-3.317991278055556
26061,K3BrO,-1.5767975003000003
26062,KInBr4,-1.5391017892499999
26063,Sb8Cl2O11,-1.721948733571428
26064,Ba2DyTaO6,-3.5816672450000007
26065,SrHfN2,-1.5903974491666668
26066,Tm6FeSb2,-0.5962651666666656
26067,KEu(MoO4)2,-2.3512642881666665
26068,Gd2C(NO)2,-2.4278210628571424
26069,CsUSbO6,-2.7825278086590037
26070,Tb3PO7,-3.7245156046969705
26071,Na2Te2H4O7,-1.5651193882068961
26072,Cs3Sb2Br9,-1.5455517515209358
26073,SrLiSb,-1.0197620775000003
26074,TiBe2Ir,-0.561819020833334
26075,Rb2SeCl6,-1.5341487719270832
26076,ZnAsHPbO5,-1.6867556049999994
26077,SbN(OF3)2,-2.024636574
26078,ZrIn2,-0.2672575116666671
26079,Bi9Ir2I3,-0.2443503653571431
26080,Eu3SbO7,-2.8685263490909096
26081,HfPt,-1.1484049699999996
26082,La10Ga5Cl4,-1.1733078659210523
26083,HoVO4,-3.2116274675
26084,DyIn2Pd,-0.653231057
26085,Ca21(Zn2As9)2,-1.0844229968604653
26086,CeSiGePd2,-0.851111084
26087,NaMo2P3O13,-2.443133932450092
26088,LiDyGe,-0.714051550555555
26089,Nd4MgPt,-0.4545773520833336
26090,PSe,-0.31301722533854104
26091,SnB4O7,-2.614625811805555
26092,DyTmIn2,-0.4358118891666667
26093,CaMn2O4,-2.4479014340517247
26094,Cs2KMoF6,-2.9910916203862072
26095,TmZn2,-0.38779031888888876
26096,La5(AlBr)4,-1.2718372946153844
26097,Er7FeI12,-1.3891387950000003
26098,Co3P4PbO14,-2.308473513106061
26099,CaWF6,-3.3691298843750004
26100,Na3CrCl6,-1.9061913974655167
26101,V2CrS4,-1.1858501217857136
26102,In6Ge2PtO9,-1.7544686541666674
26103,Li2SnN2,-0.3942923063333339
26104,Li6CoO4,-1.9410487670454553
26105,Li2MoO4,-2.2842992326190474
26106,Ta2Ni,-0.2351006000000003
26107,KTl2MoF6,-2.5403054544666666
26108,K4As2Se5,-1.0309651044289772
26109,La3TiSb5,-1.1154541970370373
26110,Mg15Si2Ir5,-0.3535883121590906
26111,Ba(BH)12,-0.45129739159999926
26112,ZnCrF6,-2.645591975625
26113,LiScO2,-3.3446211433333337
26114,Cs2GdAgCl6,-2.2132053552528737
26115,Re2BiO6,-1.9058344350000003
26116,ThCd(MoO4)3,-2.3663229388235303
26117,PrIr2,-0.6794692033333334
26118,Pm2SiHg,-0.4703111375
26119,TbRh,-0.8523016700000001
26120,LiI,-1.422324364166667
26121,NaTbO2,-3.13260942038793
26122,DyGaCu,-0.5018030058333333
26123,LuCrO4,-2.7861785983333327
26124,BiSb,-0.10086193500000018
26125,Sr2MnRuO6,-2.3596554376264374
26126,NaSn,-0.21984592890086185
26127,Sc3TlC,-0.6220075236666673
26128,CeBr3,-2.2627455456249996
26129,Cd2Cu(PO4)2,-2.146833577435898
26130,Sr2LiBeB3O8,-3.0890656137777777
26131,La2Os2I,-0.6734633369999997
26132,Dy4InIr,-0.5829195466666673
26133,La2NiRuO6,-2.6333644815
26134,Li2MnF6,-2.867916032547893
26135,HfCrGe2,-0.41217899208333364
26136,Cu2SnS3,-0.5784565823958339
26137,HoAu4,-0.5979106799999997
26138,Rb2ZrTe3,-1.231148713333333
26139,Al(Ni3B2)4,-0.32901808777777813
26140,LiDy6B3O14,-3.6048154240972217
26141,Nd,0.0
26142,Rb2B4O7,-2.7596781312820506
26143,Nd2Co17,-0.051612382368420494
26144,NdPd,-0.8140720350000006
26145,Mg149In,-0.03000530026666676
26146,Lu5Sn3,-0.6717901475000003
26147,K2RuI5NO,-0.9885705458499998
26148,LiV(SiO3)2,-2.9744460717083343
26149,KMnPCO7,-2.2024957017513063
26150,K3GeH3S3O2,-1.35396735778125
26151,Sr2H8PtO8,-1.6980495664912278
26152,Zr6Al16Rh7,-0.8283660468965518
26153,Sm2Sc3Si4,-0.7906056141666669
26154,Yb6Nb4Al43,-0.27286057999999996
26155,Ga2TeS2,-0.85352101625
26156,YRe2,-0.2182232997222222
26157,PdF4,-1.4989163859999999
26158,Na3Ga3(TeO6)2,-1.989911110357759
26159,ClF5,-0.9661543670833334
26160,Pr2TeO6,-2.9301572477777773
26161,SmHIClO13,-1.0445223414705889
26162,NaZr2NiF11,-3.5805220676034484
26163,Yb4Ge6Rh7,-0.8511863429411761
26164,TbAl2,-0.520350451666666
26165,Cs3ErO3,-2.2237809394704438
26166,Rb2RhF6,-2.4935200766666665
26167,Pr3Cu3Sb4,-0.8465192170000002
26168,CsLi5(BO3)2,-2.4994201280665025
26169,LiMgPb2,-0.17643364333333356
26170,CsTb(WO4)2,-2.6475040923275857
26171,PrInCu5,-0.19984268535714275
26172,SrS3,-1.3932620202604165
26173,ZrNiSn,-0.6842003416666671
26174,SrNd10Se12(Cl2O9)4,-2.4135713888774877
26175,Ba2ErCl7,-2.8653875375000006
26176,Pr8Sb14Rh17,-0.8043352078205124
26177,Ca(CdAs)2,-0.5885462419999996
26178,CrH15S2O15,-1.5135843534469697
26179,SmIn5Rh,-0.433875420714286
26180,NaAgTe5O14,-1.4249466707484943
26181,As(IF2)3,-1.7294165935000003
26182,InBP2H5NO9,-1.9954978608333338
26183,Rb2CeCl5,-2.6013922156250002
26184,EuCdAu5,-0.429002245
26185,Y(MnAl2)4,-0.34101131449159977
26186,U2MnN3,-1.3503256238218408
26187,Nb3Te4,-0.7029828414285717
26188,Y6NiI10,-1.4429918923529415
26189,Dy(MnGe)6,-0.32032129904509404
26190,Sr2ScIrO6,-2.8066572568333337
26191,Pr(BO2)3,-3.159839571249999
26192,BaAg2SnS4,-1.0131998526041661
26193,Hf5GaSn3,-0.4759576269444447
26194,BeF2,-3.5526576738888895
26195,PrSi2Ag,-0.514661236666667
26196,Tm3Ge3Ru2,-0.7851905474999992
26197,Ho3Ga5,-0.6477344325000001
26198,Ag3AsSe3,-0.30838878993303626
26199,BaRe2O9,-2.145035769166667
26200,K2Zr2NiH12(OF2)6,-2.3888535307428573
26201,Zr4Co4Si7,-0.7859919503333335
26202,Gd2CrSbO7,-3.0065580495454545
26203,Rb2WSe4,-1.1084127341964276
26204,TbAlGe,-0.6603276666666661
26205,LiEuPS4,-1.4034097229166673
26206,ThNF,-3.1111734991666666
26207,Na2(TaSe2)3,-1.1999866647423583
26208,SrFeNi2(PO4)3,-2.490719360087718
26209,Be2TlF5,-3.2003345488541672
26210,NdHg2,-0.4297041900000001
26211,Rb4PbO3,-1.4091653879687507
26212,Nb12TlTe16,-0.6808719877011498
26213,SnS,-0.6891782765625001
26214,NiH2SO5,-1.5999548697916666
26215,Ba3As14,-0.4563045855882346
26216,Dy2Mo2C3,-0.3510613971428569
26217,Li6MnO4,-2.0508089466300943
26218,HgCl,-0.8503019774999998
26219,MgMnSiO4,-2.911635465418718
26220,PrSi2Ir3,-0.9420078558333339
26221,LaCo5P3,-0.8001976883333334
26222,Rb4CdBr6,-1.8265245822727274
26223,Sc2ZnGa,-0.5209366343749995
26224,LaRh2,-0.6871354283333334
26225,ZrSnS3,-1.3981628958750008
26226,CaPr(FeO3)2,-2.5084072975000007
26227,Tb6Ti4Al43,-0.3432132719496862
26228,Ba3WCl2O5,-2.9080141231818186
26229,CoNiPt2,-0.09519548125000021
26230,Ho12InPt7,-1.0234016819999994
26231,LuGaNi2,-0.6041018681249989
26232,TiZnCu2,-0.16664676833333303
26233,Y2Br3,-1.855649597166667
26234,CaCrP2O7,-2.8719044512878793
26235,Ca4Al6MoO16,-3.276987537962963
26236,BiPbBrO2,-1.5883318035000002
26237,NdMnFeGe2,-0.46775684958620756
26238,Tb3(Al3Ru)4,-0.665126532894737
26239,Sr2CdWO6,-2.622859761333334
26240,CrH12I(N2Cl)2,-0.7161037222500006
26241,Np2SO10,-2.544580545817308
26242,HoHg,-0.48603224749999985
26243,BaGaB4H3O10,-2.5228941049561406
26244,Sc3Si3Rh,-0.9365784532142862
26245,Cr2GaC,-0.13068466812499935
26246,Yb5P12Ir19,-0.7854993830555554
26247,PrHIClO13,-1.0393092035294123
26248,Ba2NdTlCu2O7,-2.1811042267948717
26249,Sr2MnGe2O7,-2.625101958022031
26250,Cs3CoBr5,-1.6513038823659008
26251,LaGdTl2,-0.4026704904166669
26252,Rb2Mg2(SO4)3,-2.3748895990460532
26253,BaAg,-0.2811887170833334
26254,K3LiIrO4,-1.6526840547037038
26255,RbV2SbO8,-2.242689998333334
26256,KCrSnS4,-1.0557568757857136
26257,Nb6TlS8,-1.3002962585555546
26258,Ba5Os3NO18,-2.199136911111112
26259,CaTe,-1.8593393850000002
26260,K5InPb8,-0.2143988903571429
26261,PrNd,-0.0019749124999997036
26262,Rb15W7N19,-0.6092631940853652
26263,MgMnO3,-2.371780384586208
26264,NiF3,-1.8322122443750004
26265,Dy3Si11Pt23,-0.8671140729729729
26266,Rb2CrF5,-3.1034381262499995
26267,Rb3Sb,-0.39567487937500023
26268,V2Pb3O8,-2.066792631538462
26269,Tb4C2Br3,-1.3355955819444445
26270,NaTbS2,-2.0913399257004315
26271,Pr5AgSn3,-0.6415623751851851
26272,CsW3Br7,-1.079845410721003
26273,RbBe2F5,-3.46984213625
26274,Na2P2H2O7,-2.342326234597701
26275,LuMnO3,-3.1105538842528735
26276,Sr4CuIr2O9,-2.2015292723958333
26277,Na3PS4,-1.1277847594360635
26278,YbCd,-0.39603325499999986
26279,SrNiGe2,-0.5195490504166669
26280,GeH3Cl,-0.40601429600000005
26281,Nb2CrB2,-0.6270946536666656
26282,Mn3Al2(GeO4)3,-2.4539358546896546
26283,Ho2B4C,-0.5780386023809518
26284,K4LiH3(SO4)4,-2.049968506529762
26285,HfGeSe,-1.090811237447917
26286,EuFeGe2O7,-2.267790641590909
26287,ZrFeP3PbO12,-2.7299249252777775
26288,K2PdO2,-1.2972710952
26289,Pr(BIr)2,-0.7240508906666676
26290,Sc5Re2C7,-0.48469356821428583
26291,Na3W3Cl13,-1.5645482999818512
26292,RbTiCl3,-2.0291016151666668
26293,Sr2MgReO6,-2.871484649833333
26294,ThReB4,-0.5565869977777768
26295,Mg4As6Ir7,-0.4513237911764709
26296,HoAl2,-0.51216235
26297,Na2Mn2O3,-1.8000154369950738
26298,CaTa4O11,-3.428812644375
26299,Ga2P3(HO3)3,-2.0703265191176468
26300,Li3AsH16(SO2)4,-1.2304724444531252
26301,NaNbS6,-1.0108560019127157
26302,Na5AgGe2S7,-1.0448807387533525
26303,Zn6B3HO11,-2.1558227922619047
26304,AgF3,-1.3166930106250003
26305,USeO6,-2.328941733105469
26306,Eu2Ge(BO4)2,-2.8757623562179484
26307,CsUTiTe5,-1.0261777789080453
26308,NaZn4H6SClO16,-1.3774560667129907
26309,Sr2SiS4,-1.8589852644047622
26310,Li6Ca12Re4N16O3,-1.3141605814634143
26311,P2Pb4O9,-2.2226531231111126
26312,Yb2ZnSb2,-0.8805180242222219
26313,NaW6CCl18,-1.3071096167904501
26314,HoAlGe,-0.6481089649999999
26315,SrPSe3,-1.24075293490625
26316,Nd2Zn5Pb,-0.3870726862499998
26317,Pr25Ni49P33,-0.9490979446261686
26318,CsLa6FeI10,-1.4950525405795025
26319,K2CuSb,-0.36094160275000053
26320,CsWF7,-2.926700990047893
26321,LiAc2Ir,-0.27422142458333365
26322,LiAsS2,-0.8590045711458334
26323,ThH2,-0.5956976833333337
26324,HfCuSi2,-0.43776628375000026
26325,EuGaSi,-0.5178519174999998
26326,HoCdAu,-0.6478981766666669
26327,HfU3Sb5,-0.507250614999999
26328,BaC2(NO)2,-1.5446131883333334
26329,LaAl3Ni2,-0.6303923349999998
26330,PaGaFe2,-0.17614029937500053
26331,ZrNbB4,-0.8472373344444435
26332,CdSbAu,-0.18169250999999953
26333,PuGaRh,-0.633761208055557
26334,La3SbO7,-3.3712889059090902
26335,PmHoMg2,-0.09048592687499957
26336,SbP2O7,-2.387682338166667
26337,NaGaCl4,-1.7939995373419542
26338,Li7NbN4,-0.8888692798611105
26339,Sn2Au,-0.13294462958333378
26340,Y13Sn31Pd40,-0.7639345314484118
26341,Na3(CuS)4,-0.7984362638322883
26342,Ti2MoIr,-0.6356632866666683
26343,UO3,-3.6121776512499997
26344,Te2Pb3(BrO3)2,-1.5279930834615385
26345,K2V3O8,-2.448702838153847
26346,Cs9Fe2Se7,-1.11028143057142
26347,Sm2Ga3Cu,-0.5862973387499993
26348,Tb(CoB)4,-0.4966232074074068
26349,Tb2Fe14C,-0.06450481926470489
26350,K2Nb3Cl7O5,-2.4487770774117656
26351,CeSi3N5,-1.4112380747222235
26352,GaFeCo2,-0.24105996687500042
26353,Rb2EuF5,-3.461905322812501
26354,Li2HgBi,-0.38101239291666644
26355,Tb2SiSeO4,-3.4100064112304693
26356,NaLu(Pd3O4)2,-1.4474166504094823
26357,K3Sn2P5S18,-0.8051144097113091
26358,CsCu3S2,-0.7089222156968399
26359,UCl4,-2.1910536140000003
26360,LiBi(PO3)4,-2.5678127798148154
26361,Lu2Fe14B,-0.12484087039215677
26362,CdPd2Au,-0.2964195649999999
26363,V4S9Br4,-1.1344793278308827
26364,Sc7(CCl5)2,-2.08871584236842
26365,Ba2EuTaO6,-3.3332274004999993
26366,Ce(MnSi)2,-0.5570767221724126
26367,Co3SiMo2,-0.30110477416666726
26368,Sn2Bi2O7,-1.9365047714393941
26369,Ti7Br16,-1.5310060305797106
26370,Na3TiF6,-3.263484376798851
26371,Tm2Ni12P7,-0.7710733860317454
26372,LiDy2Os,-0.23997525208333315
26373,Cs2TlAsBr6,-1.4263090659195405
26374,Sc5Si7Pt9,-1.1095065054761897
26375,VAgOF4,-2.3606280970238096
26376,Ce2InPd2,-0.7514839469999999
26377,Si4P4Os,-0.29271616537037126
26378,Rb3(Cu4Se3)2,-0.6173688345036761
26379,DyGeIr,-0.9358494525
26380,TiFe2Sn,-0.2695705795833332
26381,HPbIO,-1.2156450718749996
26382,Gd3CI3,-1.1920372585714287
26383,Yb2(GePt3)3,-0.7103585403571425
26384,Zn53Ni16,-0.19320335710144915
26385,Ag2Br3,-0.5934052531666666
26386,NaCe4I7N2,-1.6759854601108373
26387,ZnCuF5,-2.0172857753571427
26388,Mg(Co3P2)2,-0.6349811012121207
26389,LiSnRh2,-0.566536154583333
26390,TmGe2Os,-0.5307677635416658
26391,KCo(PO3)3,-2.506552136285715
26392,ErGe2Os,-0.530613011041666
26393,ZrTe5,-0.8689723233333334
26394,Cs2Pt3Se4,-0.9164591950263407
26395,Eu(Al2Cu)4,-0.29404029423076905
26396,Zn2AgAu,-0.1559856816666665
26397,Ba2UCu2Se5,-1.5061689841718746
26398,ZrAs2,-0.8382067308333335
26399,K2ReF6,-2.7720825362222223
26400,GaCl3,-1.5678765756250002
26401,YAgHg2,-0.3476351133333333
26402,K4Mn(MoO4)3,-2.1856527147465514
26403,DySeO3,-2.5274606439687504
26404,SmBi,-0.9187873775000002
26405,SmAlAu,-0.7636012525000003
26406,Ba2EuNbO6,-3.2187379784999997
26407,Ba2WO5,-2.8697357196875
26408,PrI2,-1.572663880833333
26409,BiSb3(PO4)6,-2.354588154926471
26410,NdRh3,-0.5035153316666671
26411,GdGaGe2O7,-2.58799591590909
26412,Cs3AlGe2O7,-2.408176399137931
26413,Ca2Pr19(CoI12)3,-1.507841814
26414,ScBi3(MoO6)2,-2.17387213388889
26415,Ta2FeMo,-0.1693766125000007
26416,RbNa7(CoO3)2,-1.4701471558351291
26417,LuPaOs2,-0.29895972499999957
26418,LaMg2H7,-0.46180412974999996
26419,K2LiNbO4,-2.552546547416667
26420,Ce3(AgSn)4,-0.45701087924242373
26421,Tc3P,-0.3461104514583333
26422,LiGd2RuO6,-2.8298890033333324
26423,TmFe2,-0.1430676038888888
26424,CsTeAu,-0.8550809143103452
26425,VCu3(SeS)2,-0.7910987476171876
26426,K2H6PbO6,-1.4542919497333335
26427,Cs3As7,-0.38863711662931094
26428,Ba2YWO6,-3.131113697416667
26429,La3(GaRh)2,-0.7643300792857143