,formula_pretty,formation_energy_per_atom
2425,CeSnRu,-0.628970115833333
2426,Tb(AlCu)6,-0.3594016423076924
2427,Sm6Ta4Al43,-0.3019023746226418
2428,RhCl3,-1.0806563225000003
2429,SrBiBrO2,-2.3376762058333336
2430,Sm(CuSi)2,-0.5731995650000001
2431,SbAsPCl13,-1.1915249739583333
2432,TmTaRu2,-0.4620396866666656
2433,PbI2,-0.921080175833333
2434,MoO2,-2.0215011791666675
2435,Na4SiSe4,-1.1678146903424325
2436,Y(BIr)4,-0.5611931348148147
2437,CsCdBr3,-1.5954256060862069
2438,Ba2Ho(CuO2)4,-2.0623825726666665
2439,K2TiS3,-1.6132523589513887
2440,KAl2NiP3(H2O7)2,-2.45774005032
2441,LiHfS2,-1.720960069895833
2442,Ce2CuSi3,-0.6220311016666665
2443,LiUP(H4O5)2,-2.078021351031746
2444,Ba3LaIrRuO9,-2.540900057
2445,Tm2WO6,-3.342498428703704
2446,Sm3CuSiS7,-1.836788409739583
2447,Sr5(InSb3)2,-0.8904923475641028
2448,K3CuP2S7,-1.0200631305801282
2449,KTbS2,-2.1306141523125
2450,Sc57Pt13,-0.5687863409999994
2451,Eu2MgIrO6,-2.6294235795000005
2452,K(CoAs)2,-0.40502747860000027
2453,Rb2Cd2(MoO4)3,-1.9793615227631578
2454,NdZn3,-0.34595860312500015
2455,Nd(CuO2)2,-2.0237175200000004
2456,HoSiRh,-1.0365357699999993
2457,ZrVMo,-0.11483922333333396
2458,KPO3,-2.690296411266666
2459,K2LiCrF6,-3.1493903444333338
2460,Cs4Fe3F10,-2.781164268042596
2461,Tm(SiPt)2,-1.000121281333334
2462,In4SnS4,-0.6972441149999997
2463,Ce4H11,-0.6245445783333329
2464,As3Pb2ClO6,-1.6501928693750003
2465,NdCd11,-0.13960381027777777
2466,YBPt2,-1.0014106981250006
2467,B5Pb2BrO9,-2.5360926649019624
2468,Tb2TeO2,-3.3278823359999996
2469,K2Cu(ClF)2,-2.136414135857143
2470,Dy2Fe14C,-0.07051800529411795
2471,BaPb3O4,-1.844385413125
2472,La2ZrSe5,-2.0823870433398444
2473,NdTa7O19,-3.421197396666668
2474,KTaO3,-3.0776119956000003
2475,AgB11H6CBr6,-0.4911453472999995
2476,Rb5Th(PS4)3,-1.3126435694047625
2477,LaCoGe2,-0.6774011637499999
2478,ZrTc2,-0.31488683416666535
2479,Tm2MgS4,-2.182427455833333
2480,Li6AsS5I,-1.2186304450480772
2481,Sm6Ni20As13,-0.6896402555128207
2482,Fe(SiP)4,-0.28286322037036943
2483,Sc2B4Ru5,-0.6290116356060609
2484,USe,-1.2237442361718749
2485,NF2,-0.3344881333333329
2486,K2Cu(PS3)3,-0.8419866702750008
2487,Ta4AgS8,-1.278920572435898
2488,GdAl3,-0.43556055250000014
2489,Th2Se5,-1.8811138770312499
2490,Al12Co4Cu,-0.41471026039215697
2491,Cs4Mn(AsS4)2,-0.9955259673103446
2492,Ti2CoOs,-0.5603992516666683
2493,K2AsAuS4,-0.8851948585625
2494,Tl2V3O8,-2.1389905155128206
2495,Ca(BH4)2,-0.48008928666666734
2496,La5Sn3Br,-1.0354095986111114
2497,TbAl3Ni2,-0.6557902377777778
2498,Y(Co2B)6,-0.34818374745614133
2499,YCo2,-0.17678997222222273
2500,Ca3(GaPt)2,-0.8577775057142857
2501,HoCoB4,-0.604512799444444
2502,K3ErSi2O7,-3.09110244197436
2503,DyHfF7,-4.324166963611112
2504,UTe6(OF5)6,-2.4126657138372094
2505,CsLu2Cl7,-2.6653215215431034
2506,TbCBr,-1.2667344908333327
2507,Sr(ZnGe)2,-0.3708089453333333
2508,LiPH21S3N7,-0.5355494115467174
2509,Y2BiO2,-2.9336391366666676
2510,GdGa2,-0.6546542749999998
2511,Ba3YbIrRuO9,-2.4855635036666675
2512,K2CN2,-0.6172026612000003
2513,K(V5S8)2,-1.287397871592593
2514,Mo(PO3)5,-2.4777439565079376
2515,SrZn2,-0.23869413722222235
2516,Ba(CdP)2,-0.5809104713333337
2517,Ac2TlCd,-0.3206236395833333
2518,HoGaRh2,-0.8386333593750006
2519,PdSe2,-0.5964911090624992
2520,TmH3,-0.7343535133333331
2521,Ba3Si2(B3O8)2,-3.1519025194444446
2522,LuHfRu2,-0.6679267974999998
2523,Li2Zn3(Ge3O8)2,-2.099200858209877
2524,KBaPO4,-3.043846705190476
2525,HoAl4Ni,-0.5483024391666665
2526,Rb3Sc2Si4(O2F)5,-3.4469112405208335
2527,TmNbO4,-3.5847614477777774
2528,SnHgF6,-2.410244241875
2529,Rb2MoO4,-2.199642804285714
2530,TbGe,-0.8750995899999996
2531,GdZnPd,-0.7352363177777784
2532,TbB7Mo3,-0.5567600812878779
2533,Ba3Tm(BO3)3,-3.3161467004687495
2534,TbCu2,-0.26468024500000037
2535,ErPdPb,-0.7135944377777774
2536,SmNiGe2,-0.73651204
2537,TbHg,-0.4857521174999997
2538,Na3InSb2,-0.4365235070258624
2539,NaCaFe3(PO4)4,-2.5486492674954024
2540,KEr3F10,-4.306544510125001
2541,Pr3Mn2Sb3O14,-2.6839538709482764
2542,Tm5In4,-0.40112592870370395
2543,Na3CoPCO7,-2.2343641915760393
2544,Na4PbO4,-1.610200159578544
2545,NaB4Ir3,-0.25440796727729875
2546,PH6NO4,-1.4751685056944435
2547,ZrGeMo,-0.5920111733333341
2548,Sb3Cl9OF4,-1.6532924147058827
2549,La3Sn7,-0.650912262
2550,Sm11(In3Ge2)2,-0.6499165423809521
2551,LiAl2Ir,-0.7362023233333339
2552,USiRh,-0.6896325541666654
2553,Li(SiRh)2,-0.725846648666667
2554,Er2InCu2,-0.3922889580000003
2555,RbPrS2,-2.0592991221875003
2556,LiCa2NiN2,-0.7912417638888888
2557,Ba2SiO4,-3.361978600357143
2558,Er2(Al3Rh)3,-0.8253606421428573
2559,KTeOF3,-2.5057316200833335
2560,Dy2ReB6,-0.626908613333333
2561,Th(CoSi)2,-0.7797270959999991
2562,SeI2,-0.1854782491145833
2563,CeInNi4,-0.36899307083333355
2564,Cs2Ti4O9,-3.2332667942796935
2565,KIO3,-1.3708171526000001
2566,LiCa2Al,-0.14325712833333304
2567,YSF,-3.2964692407638885
2568,SmCuGe,-0.6300775666666668
2569,PrSe2,-1.9456395615625002
2570,YBRh3,-0.7739506211666665
2571,Ba3NaIrRuO9,-2.207663742103449
2572,BaCdPb,-0.4519616733333332
2573,Ag15P4S16Cl3,-0.48667887706140417
2574,Ba6Na2V2Sb2O17,-2.7255005407966717
2575,MnB2F8,-3.118850023524034
2576,LaAlCu4,-0.2801916508333336
2577,InSeClO3,-1.5474698024739577
2578,BaHBr,-1.6631494358333334
2579,TaP2Se2Cl5,-1.2466521055104167
2580,SbXeF11,-1.6397739374999998
2581,Hg5(BrO2)2,-0.6941191627272729
2582,KTa5O13,-3.2952205876578957
2583,SClO2F,-1.622428512125
2584,Er15Si9C,-0.7016652917999999
2585,TmPd,-0.9494574833333331
2586,NaBO2,-2.6126217589295977
2587,K4ZrO4,-2.3561213568888895
2588,BaMg2H8Ru,-0.5309609783333341
2589,Eu(NiSb)2,-0.617686759
2590,As2P2S7,-0.5084505864583332
2591,K3NdSi7O17,-3.1852104243392856
2592,K2Zn3P4(HO3)4,-2.069962563673333
2593,K2NaScBr6,-2.018248553255172
2594,Cs4UC3O11,-2.4566634553539
2595,RbSb2P(SO6)2,-2.103601935671296
2596,KBaGdWO6,-2.9399797293
2597,ZnP2H7NO8,-1.7430524278508774
2598,CsSc3(CuTe3)2,-1.1782700785775866
2599,Ti2Co3Si,-0.5926624252777787
2600,SmMgHg2,-0.47017899124999984
2601,Tm5(Ge5Rh2)2,-0.7818514922807015
2602,Ge3Sb2O9,-1.9797399339285724
2603,ZrPt,-1.0830554799999996
2604,Tb2Mn2O7,-2.8833287255329143
2605,CaIr2,-0.4730969166666661
2606,NdSbSe,-1.6140448649479175
2607,YGa3Ru,-0.5889510648333328
2608,TaNiP2,-0.6955912422916661
2609,K4CdAs2,-0.42317476028571427
2610,EuHCl,-1.7685298949999992
2611,Li2Tl,-0.23578796999999993
2612,Sb7Mo3,-0.14801329300000035
2613,BPO4,-2.7646443820833326
2614,YZn3,-0.37654623166666656
2615,CaCuF5,-2.7686752610714294
2616,Sr(AlGe)2,-0.39439082133333303
2617,HoP,-1.6107617466666673
2618,ZnCr2O4,-2.2772387178571427
2619,RbDyP2O7,-3.14600090810606
2620,CaSn2Rh,-0.6542506824999998
2621,Er2SeO2,-3.5076462084687505
2622,Lu2RuRh,-0.7756645962499995
2623,Nd2CdGe2,-0.7275734559999997
2624,Rb2MgF4,-3.344638556428571
2625,CsNbF6,-3.4326005328663793
2626,Ca2MoN3,-1.0513261583333329
2627,V2Pb14Cl4O17,-1.7375209385135137
2628,P4(S2O)3,-1.1384425447756406
2629,Zn2Cr3FeO8,-2.1450859957142856
2630,YbAl2Pd,-0.707192375
2631,Eu2CuH4(SO6)2,-2.040707475059524
2632,NdNiSb,-0.8904670866666665
2633,TbMgCd2,-0.3106973525000001
2634,FeTe2,-0.4620026383333335
2635,SmBiRh,-0.7239334583333333
2636,TbMgCo4,-0.141540755
2637,Fe3Co3Si2,-0.3613221668749995
2638,InBr,-0.9385631537500001
2639,Nd(Co2B)6,-0.3442349928947363
2640,B5H5CI,-0.23999373746527772
2641,La2Fe2I,-0.5684277850000001
2642,Na3NbOF6,-3.17888315815047
2643,HoCuSb2,-0.6868255875000004
2644,Ca2Sb4Pd3,-0.8219184183333333
2645,KNaV2O6,-2.408906538455173
2646,FeS,-0.7579213340625008
2647,Cs4ZnO3,-1.422118927090517
2648,Tb5Pb3,-0.5431203156249991
2649,Cs2NaCoF6,-2.71412341024138
2650,Zr5Ge3,-0.8016793925000005
2651,Ba(P2Pd)2,-0.665217810476191
2652,K2P3,-0.4367019007000003
2653,Dy3(CuSi)4,-0.6110550172727277
2654,Mn3(CoO4)2,-1.6941187479840845
2655,NiBr2,-0.7513379716666666
2656,PaBr4,-1.8636914080000004
2657,ThAu2,-0.7192004400000004
2658,Eu2VO4,-3.079138462857145
2659,Nd2(Al3Ir)3,-0.8492889103571427
2660,TiSe2,-1.4263449626736115
2661,Zn5B3Rh7,-0.4340186894999997
2662,CuPHO4,-1.8784913209523812
2663,RbZr6BCl15,-2.1805326560507248
2664,LaC2,-0.16150238499999978
2665,TiFeO3,-2.7297153446666664
2666,ScAlNi2,-0.6274300212499995
2667,Ba(NdS2)2,-2.3762274982142864
2668,H18SO12,-1.3540284352620966
2669,YbCdCu4,-0.25035975333333305
2670,DyMg2Cu9,-0.1735397299999999
2671,ZrSb2,-0.6786046216666671
2672,Ca3GaN3,-0.9432459117857144
2673,Gd2HfS5,-2.2072360185156246
2674,Na5SnSb3,-0.42529754016762467
2675,CeHg,-0.2852864099999999
2676,Ca3Cr3(PO4)4,-2.911254008782051
2677,La6Zn(SiS7)2,-2.0124086401630437
2678,K2EuSiSe5,-1.3512852250243048
2679,Th7Fe3,-0.12343202750000018
2680,HoGaPt,-1.103657865833333
2681,Y(CoGe)2,-0.6159297573333327
2682,Sn2Rh,-0.4145673608333335
2683,Ba5(InSb3)2,-0.9172515276923079
2684,Ca(ZnP)2,-0.700753461333333
2685,LiIO3,-1.3859118691666665
2686,Sr(ClO3)2,-1.2334105496296293
2687,Ba2NbCrO6,-3.0562006469999994
2688,Cu2SiTe3,-0.28455657833333287
2689,FeSO4,-1.8582702946875003
2690,Lu10In20Ni9,-0.40179811692307693
2691,TmSc(BO3)2,-3.4995584660000008
2692,CsMnCl3,-1.8580083598390804
2693,BaNaCrF6,-3.4633925410057476
2694,Sm3Si2Ni,-0.6437811449999996
2695,CsCu2AsS3,-0.6970584505080052
2696,Sr3Ge2(B3O8)2,-2.906343772777777
2697,Ta6V3Co3C2,-0.39042710785714363
2698,MgH12(I4O3)2,-1.118697695185185
2699,AgSe5,-0.3021827422309027
2700,Th(InBr3)2,-1.6273688250000002
2701,Sc(MnAl2)4,-0.33480456744031856
2702,LaNi4B,-0.4164818056944443
2703,Ge2Pt3,-0.4274800235000001
2704,CdPbF6,-2.362126574375
2705,AuCl3,-0.7200521018750003
2706,VTc2Ge,-0.3046328687500015
2707,BH4NF4,-1.9719201886666666
2708,DyGeRh,-0.9790206875000003
2709,LiH2BrO5,-0.9446949950925929
2710,Ga2Hg3Cl8,-1.268467406730769
2711,BaAgSF,-2.253487670572917
2712,K2EuTa5O15,-3.269394503739131
2713,La3PO7,-3.701327329242426
2714,CeGaPd,-0.7975559458333331
2715,Ca4P7Ir8,-0.891274248070176
2716,Pr9Al5S21,-2.0293235575892856
2717,BeSnAs2,-0.17523022250000064
2718,TiC,-0.810004021666666
2719,LiBC,-0.37570868750000014
2720,RbMo2P3O13,-2.4696170597368425
2721,EuB4Ru,-0.41263207944444363
2722,Na5CuSO2,-1.3261172150981804
2723,KBH4,-0.5108055170277778
2724,CeNiSnH,-0.6054224743749996
2725,Gd2NiIr,-0.5905587924999995
2726,La6ZnSb15,-0.8626022431818179
2727,BaGaSi,-0.42851178583333355
2728,PdSeO3,-1.0328939854687498
2729,HoCd6,-0.16309414809523812
2730,Ni3B7BrO13,-2.400528518715278
2731,CeFeSi2,-0.6531035587500007
2732,TlAgAs2PbS5,-0.5127400900624999
2733,SrLi2Pb,-0.39588358583333383
2734,ScTl3F6,-2.9288678845
2735,Ti3Al2NiC,-0.679300742142857
2736,RbAuF4,-2.071514807916666
2737,Tm4In(NiGe2)2,-0.7616041742424234
2738,InN,-0.07884623999999985
2739,KAlTe2,-1.0045389369999995
2740,Sr(FeSb3)4,-0.30739055686274575
2741,Hg4P2O7,-1.7289186324358972
2742,AgNO3,-0.6830964443333336
2743,K3EuSi3(HO5)2,-2.7419274752105265
2744,HfZrW4,-0.15895060666666674
2745,URuS3,-1.3044117383750007
2746,Th(TeO3)2,-2.465904146388889
2747,LuGa2Ni3,-0.5607346819444443
2748,Nd2CoNiO6,-2.52284417
2749,Na3Ca3AlSb4,-0.7784286722413796
2750,Cs2KBiF6,-2.9384869343862072
2751,Co2Mo4N,-0.202971728571429
2752,CsRe2OsSe4Cl3,-1.1322408406641857
2753,Ce(As3Ru)4,-0.4820951826470593
2754,Gd2SO2,-3.5311817946250015
2755,Ac2IrAu,-0.618028193749999
2756,SrZn2(AsO4)2,-2.1309831649358975
2757,Gd3In,-0.31065132750000224
2758,Eu2Si3Ni8,-0.5296425573076937
2759,Cs3InBr6,-1.7299559138793104
2760,KAuBr4,-1.101276033416667
2761,GdB4Ru,-0.6092076111111098
2762,BaSm2NiO5,-3.0564637916666673
2763,CePt,-1.0847438799999995
2764,Y(Al2Cu)4,-0.3114289358974362
2765,DyCdCu,-0.29143942333333367
2766,Eu(TmSe2)2,-2.190043342172619
2767,NiP2H2O7,-2.122799399826388
2768,TiF3,-3.6713244152083337
2769,Os2O3F7,-1.9016691358333329
2770,Ce4Ge3,-0.6970028542857136
2771,TaFeSi,-0.5913763225000004
2772,AcCdRh2,-0.3535251581250005
2773,LaGe2PdRh,-0.8978760299999997
2774,Li2AgHg,-0.30005289708333316
2775,MgTaIr2,-0.5554562250000004
2776,LuZrCo2,-0.2945955775
2777,NaLiMnPCO7,-2.3368172438457857
2778,TmGaPt,-1.1142843380555547
2779,BeAu,-0.1361928937500001
2780,KLa(PO3)4,-2.9319875292407414
2781,PrSi2,-0.5554976433333335
2782,NdSi3Os,-0.5805665110000007
2783,CeTl(PS3)2,-1.0844363241250001
2784,Eu3BeO5,-3.2134224866666665
2785,Ce(Ni2B)6,-0.39118292026315704
2786,Ba2(SnSb2)3,-0.521940752045455
2787,Fe2(SO4)3,-1.8302301849632356
2788,Sr3LiRuO6,-2.5825316880303033
2789,Sc7CoBr12,-1.8136018329999999
2790,Sm8(Ga16Cu)3,-0.3304048038983048
2791,CsMo2P3O13,-2.47002156462795
2792,H13S2N3O8,-1.1562336843750005
2793,KGe,-0.20322851368749983
2794,Yb4Ta25O68,-3.346682491134021
2795,LiSbF6,-2.8701325497916663
2796,Pr4Si2Se3O7,-3.1741529209082024
2797,Rb2Cu2Sb2S5,-0.7978361164204544
2798,YCuS2,-1.623816896979167
2799,Ni8Bi8SI2,-0.24069420674342198
2800,Na3LiP2O7,-2.64439359035809
2801,Ba3AlHO4,-2.7607703680555553
2802,BaLiSb,-1.0089153227777778
2803,Er5Ir2,-0.6976946957142859
2804,NdAsSe,-1.6065080141145838
2805,Ca(InCu)6,-0.10331311153846201
2806,ErPb3,-0.23868868749999983
2807,K3NaCr2O8,-2.053945287896551
2808,Cs2S,-1.126695811329023
2809,Ba5(In2Sb3)2,-0.8042622831666671
2810,RbZnB(PO4)2,-2.6524711267948717
2811,Pr3S3N,-2.156723199553571
2812,CeSi2Ni9,-0.47944625958333376
2813,Sm3Pd4,-0.8622195385714276
2814,Ca(GaSe2)2,-1.271965713839285
2815,LaIn5Rh,-0.4567976764285717
2816,CsTa4P3S19,-1.043484376752075
2817,RbTmP2O7,-3.162324775984848
2818,NaLiSiB3HO8,-2.7226772851590035
2819,LiZn2Ir,-0.35238238583333326
2820,CaVF5,-3.6678458382142862
2821,Eu2In,-0.3262629108333333
2822,Dy2Ge2Ru,-0.798527884
2823,TmAu,-0.9050376108333325
2824,Cs6Ti2O7,-2.4932228012835247
2825,Hf4NbGe4,-0.7058105575000013
2826,CsBi2,-0.3079656576436787
2827,CaPr(MoO3)2,-2.7327941104999995
2828,Ti2NbAl,-0.27613347416666745
2829,Ba3(LiSn2)4,-0.5190108482222219
2830,PmYMg2,-0.10956268604166652
2831,GdGa,-0.6391157987499998
2832,Na2ZrO3,-2.872602932183908
2833,Zr2CuTc,-0.26983076750000023
2834,ZrFeP,-1.0522487427777776
2835,YPd3S4,-1.1358875198958325
2836,Rb2NbCl6,-2.0215770605555554
2837,KP(OF)2,-2.87880576313889
2838,KCa2Be2Al(Si2O5)6,-3.2905375618333337
2839,Er3B7W,-0.623808734469696
2840,LaNi5P3,-0.8115947038888893
2841,Nb8Si2Sb4Pd,-0.5059905826666664
2842,Rb2PuCl6,-2.2927876966666667
2843,K4Hf3Te17,-0.9390165750833338
2844,Cs3Bi2Cl9,-1.8755395309852219
2845,Li7Pb2,-0.3182604370370367
2846,Np3As4,-0.6469351608928581
2847,SrIn4Pt,-0.483847568611111
2848,TmAsPd,-1.180738991388888
2849,Sr3Al2O6,-3.343021403219698
2850,MoPb3Cl2O5,-1.7696367277272729
2851,KCu2AsS3,-0.6772084049821433
2852,NaBiO3,-1.5840924983103448
2853,Tm2TlAg,-0.33592044083333317
2854,BaHfO3,-3.7867155090000013
2855,ErMgAg,-0.2669206722222227
2856,TmRh2Pb,-0.5871621166666667
2857,HoFe2,-0.0997013450000009
2858,Sr2NiRuO6,-2.142886346333333
2859,Gd2Hf2O7,-3.99954221
2860,AlInS3,-1.1183801708749996
2861,Hf6Al2Pt,-0.47359264222222286
2862,Dy5Ge3C,-0.7216043166666668
2863,PrAlRh,-0.7960926391666661
2864,Ca2B5BrO9,-3.0073994560784323
2865,Sr4Al6CrO16,-3.2516778828395068
2866,LiReO4,-2.313500631388889
2867,MnFeP,-0.5568241812547884
2868,Ba(ZnAs)2,-0.6776153835000003
2869,Ca3Hf3AgF20,-3.9143076308024694
2870,HfAlNi2,-0.6364737125000008
2871,Ne,0.0
2872,SnP2Cl8O3,-1.6814385404761905
2873,Nd3(AgGe)4,-0.5534240642424241
2874,La5Ti2CuS5O7,-3.0788500423645844
2875,Y(CuGe)2,-0.5051304113333337
2876,Zr2P2SO12,-2.974980839693628
2877,SrMgPt,-0.7574735072222225
2878,EuMg3SiN4,-1.1407113256944446
2879,HoLuCu2,-0.283346837499999
2880,FeH8(BrO2)2,-1.2227877139999999
2881,K2(NbBr3)3,-1.5116004148928575
2882,Pr2SeO2,-3.3493759124687514
2883,FeSbO4,-1.8344035999999992
2884,TbCdAu,-0.6589855400000002
2885,Li2EuSiO4,-2.984270755208333
2886,GdH3,-0.7140209916666672
2887,Rb2UCr2O10,-2.3859864379999993
2888,La4MnS6O,-2.461378067640087
2889,AcTlAg2,-0.22762373229166633
2890,KRb2AlF6,-3.4295075253
2891,ErCuGe,-0.6838385333333333
2892,LiInHg2,-0.18923183833333335
2893,TiIr,-0.8576218816666668
2894,YbTlHg2,-0.39213422083333316
2895,FeTeBr7,-0.8458252097222222
2896,NbNiTe2,-0.6551470956250007
2897,MgTeO4,-2.0619472841666666
2898,NaTaO3,-3.0686613758103447
2899,NbSbF10,-2.9819313966666674
2900,LaTl2P2S7,-1.0727129108506948
2901,BaLaAgTe3,-1.547086572777778
2902,SiC,-0.20472060049999924
2903,CsUN3O11,-1.7187807117456897
2904,Ba3YRuPtO9,-2.526873556111113
2905,NdSnPd,-0.9130234172222218
2906,K3Bi,-0.36511311558333315
2907,Ce2Ni2Sn,-0.5038613250000005
2908,VAg3HgO4,-1.154799511666667
2909,Rb3Ni2(NO3)7,-1.157030800909092
2910,LiGaAg2,-0.2271890435416668
2911,Sc2CuIr,-0.7032998775000001
2912,Na15SnGe8P,-0.19197683526436776
2913,Ba2CeSnO6,-3.1160760100000005
2914,LiLuIn2,-0.3458470758333334
2915,HoFe5P3,-0.7453499174999997
2916,CsCu2F5,-2.1736929988038796
2917,PrNiBi,-0.6426058983333327
2918,Na5ReO6,-2.0618821956465525
2919,Rb3TbCl6,-2.5034046102499996
2920,Ti45Se16,-0.7790107801229514
2921,Ca4YB3O10,-3.3854146207870364
2922,NaHF2,-2.474584996637931
2923,HoAl3Ni2,-0.6540918766666661
2924,Sr3LiNbO6,-3.1016881634848485
2925,YSnGe,-0.6415024655555559
2926,LaSi3N5,-1.4675258225000007
2927,SrCuSn2,-0.4237761241666669
2928,Y4MgNi,-0.20279094236111206
2929,ScSiRh,-1.0881264658333325
2930,PmInAu2,-0.6941354243749998
2931,ThIr2,-0.8332764049999994
2932,Li2HoTl,-0.21923123749999984
2933,MnWO4,-2.216562538821839
2934,Ni3P4PbO14,-2.2913056896969692
2935,Tb3Ga15Ru4,-0.5223580524999999
2936,LiBi3(IO2)2,-1.5806592863333335
2937,Na2PtO2,-1.3711057166206893
2938,LaSbPd,-1.1463155349999994
2939,Tm2TiO5,-3.9162767030208343
2940,Dy3Sb4Au3,-0.8881984870000004
2941,Mg2GeSe4,-1.1042133141964285
2942,ScAlCo2,-0.5154284212500002
2943,MnCdSe2,-0.7330807606546337
2944,KUCuS3,-1.4617659195625
2945,MnGeRh,-0.37040688264367816
2946,CeInNi,-0.44896556166666657
2947,Cs5As(PSe3)4,-0.8866308123233408
2948,Sc2Ni2Sn,-0.6122041119999999
2949,PrMgIn,-0.40941103833333314
2950,LaZn2Ni3,-0.3600533024999996
2951,LiNd6B3O13F2,-3.595200571633333
2952,LiTiPd2,-0.5341690016666671
2953,PrNi5Sn,-0.3193437500000006
2954,CaV2P2O9,-2.9015881227976195
2955,Dy2Ti2O7,-3.790754809924242
2956,NaAlTe2,-0.8814405216379306
2957,Li2ZnSiO4,-2.641685269270833
2958,LiWF6,-2.916406789479167
2959,Ir3S8,-0.6890330740909092
2960,KYO2,-3.091269242416666
2961,Ca5Ir,-0.23839319124999983
2962,CaAs2HF13,-2.6987940335294116
2963,Tm2ZnRu,-0.41875352958333334
2964,YSeClO3,-2.4741731456684017
2965,Sr3TbRhO6,-2.9205522354545455
2966,SmNiSn,-0.644510047499999
2967,Tb3Ru,-0.30631684499999956
2968,Ho2TlHg,-0.4026903295833333
2969,K2LiIn(MoO4)3,-2.1434037636491237
2970,CaInRh,-0.5411919075
2971,Eu3BWO9,-2.921560358511905
2972,KInBr3,-1.5251885146
2973,ZrSi,-0.8978384087500002
2974,HgF,-1.4196064162499997
2975,Rb2Ti4O9,-3.249523202222222
2976,P2H9(CBr)3,-0.3561710909803922
2977,LaInRh,-0.7228754183333331
2978,Nb4CoSe8,-1.0819458341346149
2979,CePRuO,-2.2288267658333334
2980,K5Ta(TlAs2)2,-0.45215977451388883
2981,CsS2(O3F)2,-1.9719456458346398
2982,LiMnBO3,-2.514293998405173
2983,SmGa5Co,-0.4676719439285714
2984,Er5(SiSb)2,-0.9478686938888887
2985,ErInAu,-0.7311747711111111
2986,Er3Sc2Al3O12,-3.8299812522499996
2987,GdZn2,-0.39033267000000055
2988,ErGaAu,-0.7845839525000002
2989,YbPmCu2,-0.2293942368749997
2990,KHoS2,-2.1325385348125003
2991,Sc2GaB2Ir5,-0.8431575505833336
2992,BaZn2(AsO4)2,-2.1350901067307695
2993,Cs2RbAsF6,-2.7848119363362067
2994,K2ReH9,-0.39478749522222184
2995,HoCu4Ni,-0.23405856166666736
2996,CsInHgS3,-0.9356505762176722
2997,KTe3O6F,-1.7781387450454544
2998,Ce2Ni3Ge5,-0.6489958814999994
2999,Pr4C2Br5,-1.6104164225
3000,Ba2TlF7,-3.379707138083334
3001,Ho(AlFe)6,-0.3895909323076924
3002,CsSbCl6,-1.5401270822413795
3003,Hf(SeCl6)2,-1.3336635709791664
3004,KNaCu3S3O13,-1.739132574115559
3005,Be2RuAu,-0.2576604237499991
3006,PrTlP2S7,-1.070234545397727
3007,TiZnRh2,-0.7726216583333327
3008,GaRe(Cl3O)2,-1.5390128274999995
3009,KCa4B22H18ClO46,-2.4770859084202894
3010,Nb3Co(PO4)6,-2.710422363382353
3011,BaNb2Fe2(PO4)6,-2.759600454714286
3012,EuSnF7,-3.2776816502777777
3013,Sr3DyRhO6,-2.9291520872727275
3014,Nd2EuS4,-2.3770445725000005
3015,RbAl11O17,-3.376918565948276
3016,SrCaLaBiO6,-2.8414545826666666
3017,Cs2VAgS4,-1.234269310628592
3018,Ag3PS4,-0.4310932801041667
3019,Tb11(In3Ge2)2,-0.658505558095238
3020,LuIn,-0.3850215650000002
3021,Te2Rh,-0.6821345074999995
3022,Cd2RhAu,-0.12110005750000008
3023,Zr2NiP2,-1.2844920833333333