,formula_pretty,formation_energy_per_atom
10771,Re2SbO6,-1.9233049983333343
10772,Pr2TeO2,-3.2205586339999996
10773,K(GeAs)3,-0.2026431536428573
10774,Ca3(BO3)2,-3.2881798112121206
10775,Np2O5,-3.4485204746428573
10776,Ta9VO25,-3.261997133
10777,Nd(As3Os)4,-0.3349652788235301
10778,K3Sc(PO4)2,-2.9523227945714283
10779,Eu(Sb3Ru)4,-0.44565765441176514
10780,SrAsPt,-1.0112781905555555
10781,ScH6Br3N2,-1.0811519433333334
10782,NbSiRh,-0.840848990833333
10783,Ba5Ga5Pb,-0.4725571488636362
10784,BaPdS2,-1.4715703328124996
10785,Lu2WO6,-3.3474640027777776
10786,K15W7N19,-0.6502458958536572
10787,Ga3Os,-0.268245399375
10788,Zr(MnSn)6,-0.10671935519893995
10789,B(HO)3,-1.8552204405952384
10790,Sr10Sb16H6Se7O30,-2.0067445629430853
10791,K3GeS3,-1.2508797547678572
10792,KTlCl4,-1.5489856477222226
10793,CsCuO,-1.1894963259770115
10794,KAuSe,-0.9030953751145834
10795,Cs8Tl8O,-0.31678471030087857
10796,Bi2P4O13,-2.47284237385965
10797,BiPd3,-0.26151194937499955
10798,LaPb6BrO7,-1.8782047005
10799,SiAs2,-0.07108631999999974
10800,InGaBr4,-1.1875090279166665
10801,Cs2YTlF6,-3.3659793520862076
10802,Ce2Si7Rh15,-0.862902832916666
10803,GdB2Ru3,-0.4598178438888887
10804,La7Ta3(W2O15)2,-3.2696822610227283
10805,Rb2Cd2(SO4)3,-2.0054594470723686
10806,Sr4Pt4PbO11,-1.9639109330833335
10807,SrGeO3,-2.743702262666668
10808,BaTcO3,-2.466369670333334
10809,Mn2P2O7,-2.5820079247753385
10810,Sm2Si2O7,-3.637196185227272
10811,LaBi,-1.0473996175000009
10812,CsTm2Cu3Se5,-1.3128360189075563
10813,Pr3Si2BO10,-3.5657570663541662
10814,HoInCu2,-0.3252375049999996
10815,Ba3(Si2P3)2,-0.6569786569230767
10816,B5Pb2ClO9,-2.564298038284315
10817,PuRh3C,-0.21050192799999934
10818,GdOs2,-0.25156941249999915
10819,HfTc2Sb,-0.3722412849999994
10820,Tm3AlN,-1.026312463
10821,RbAg2(AsSe2)3,-0.5314020754079856
10822,HoPtF7,-2.9213908972222224
10823,Yb6U3O17,-3.3980098375
10824,TbPPt,-1.352614994444444
10825,Tm5Re2C7,-0.41983880595238077
10826,LiTiSe2,-1.4605108353385416
10827,DyMn6(Sn2Ge)2,-0.22567310289124756
10828,Gd3Ga5O12,-2.9372123179999994
10829,Rb2MnH12(SeO7)2,-1.4548793341167272
10830,LuAl2Pd5,-0.9747989312499996
10831,Tb6H44N8O51,-1.556209359357799
10832,CuSb2(XeF5)4,-1.7485643188888889
10833,Cs3PSe4,-1.13127106518768
10834,TiSiRh,-0.9466066219444436
10835,HgPd,-0.16971134749999983
10836,KSbO3,-2.0533213286
10837,Eu3MoO7,-2.965988245227272
10838,EuMoO4,-2.6517643575000007
10839,GdCdHg2,-0.3897050074999999
10840,SmSBr,-2.350247748541667
10841,DyTeAs,-1.317668544999999
10842,K2CdSn,-0.22026426524999998
10843,CaPmZn2,-0.3082367343749999
10844,AgF2,-1.439434122222222
10845,BaNb2O6,-3.2160994216666663
10846,Pr(ReO4)2,-2.505869302272727
10847,RbSm(SeO4)2,-2.0098189462239575
10848,Na4H6Ru,-0.35723920556426303
10849,ScTaRu2,-0.6248050687499997
10850,ZrVP,-1.104892360277778
10851,GeS2,-0.6605629876388895
10852,Cs3P7Pb2O21,-2.5804946341553467
10853,Cs2TeBr6,-1.457295213429119
10854,Yb4Ge6Ir7,-0.7398320723529411
10855,MgFe2BO5,-2.327618204074074
10856,GePt,-0.46864945
10857,SmBRh3,-0.7348050208333348
10858,Ba5(RuO5)2,-2.4417684214705884
10859,Ho3(P3Pd10)2,-0.7327058600000003
10860,Li2LaPb,-0.3790264704166666
10861,Ca(B2Pt3)2,-0.39192032060606025
10862,K3SmSi2O7,-3.0519718092820516
10863,Eu4As7Ir8,-0.6832157707894737
10864,Ba3NaIr2O9,-2.1540603597701153
10865,Ba2PuZnO6,-2.910722046000001
10866,TiCl4,-2.081178084666667
10867,TiSiRu2,-0.8903229508333332
10868,Sr2DyRuO6,-2.859092935833334
10869,NdGeAu,-0.8307787333333335
10870,In2S3,-0.8348110936250002
10871,Sc5(In2Co)2,-0.44986981954545446
10872,Pr2Ni7P4,-0.8314159525641025
10873,Cs3Gd(PO4)2,-2.943865688247126
10874,Eu5(ZrS4)3,-2.0999509391250006
10875,Sr4FeMoO8,-2.706512608333334
10876,Nd2Au,-0.5522920725000002
10877,UGeIr,-0.5893787525
10878,Re2Cl5O4,-1.5906965800000001
10879,CaZrO3,-3.670175069500001
10880,LaMg(BO2)5,-3.1143983051960786
10881,Y(SiPt)2,-1.0886549573333333
10882,CaSiO3,-3.4480347406666683
10883,La3Si2S8Cl,-1.9369418035714285
10884,Ba(Mo3S4)2,-1.1643923116666657
10885,KH3O2,-1.4676271588333332
10886,Ag2Se,-0.2245219318923605
10887,BeP2(HO)4,-1.6612964926515155
10888,Pr2(Ga3Ru)3,-0.5312942333928571
10889,RbAg3Se2,-0.5783666120312502
10890,Na3LiTi2F12,-3.511973669147509
10891,Sm3Co29(Si2B5)2,-0.40272197699275375
10892,GdSe,-2.083803276171876
10893,LiTaGeO5,-2.760187572604166
10894,TlAsS2,-0.5167587505208333
10895,Li4Pr3Ge4,-0.6645043698484844
10896,DySiRh,-1.0254076924999989
10897,Rb(Nb2Cl5)3,-1.7514303325
10898,In(HO)3,-1.5499650850000002
10899,YSnPd,-0.9386545847222223
10900,PrH2,-0.7249307083333338
10901,Cs2KAsF6,-2.8075206908862063
10902,Sb4Cl2O5,-1.6910007313636364
10903,KCrP2S7,-0.8714538246856068
10904,BaMgSi,-0.36290309000000026
10905,K2TcCl6,-1.7374954273333327
10906,SmNiC2,-0.29080710624999906
10907,Li(NiGe)6,-0.31890367410256404
10908,La2MgNi2,-0.31216888899999945
10909,Al8Mo3,-0.3357490745454548
10910,Nb9VO25,-2.9708392769999996
10911,Na3ScBr6,-1.963830556465517
10912,Mg149Be,-0.01841006023333345
10913,NaGe2(PO4)3,-2.4788882159195396
10914,BaZrSe3,-1.9204637779062501
10915,BaPS3,-1.4750669770416671
10916,TbNi2B2C,-0.5122247530555543
10917,ErCu,-0.2732256099999999
10918,U2Nb3Ge4,-0.43653733166666736
10919,Gd3B7W,-0.5300544858333338
10920,Tb11Cd45,-0.2395566029464286
10921,Sr5As5HO18,-2.4609601476149434
10922,Ba2TbMoO6,-3.0268712790000003
10923,LaBO3,-3.5211455498333337
10924,La3Nd11(Si3O13)3,-3.692056954516128
10925,Sr5Si3,-0.36538061791666676
10926,CsNb3SBr7,-1.4920852644630038
10927,Sr2MgSi2O7,-3.401855501527777
10928,LaIn2Pd,-0.6642925900000005
10929,CeIn5Co,-0.24687542428571468
10930,GaCuSe2,-0.7138625155468747
10931,Gd2PdRu,-0.5793853062499998
10932,Cs3P7,-0.43892360396264396
10933,Fe3P4H12(NO8)2,-1.765734261981982
10934,Ba3NaSbO6,-2.650607565595612
10935,NaZn(PO3)3,-2.5639113942179814
10936,FeSbSe,-0.49323954078125115
10937,NdTiCdSbO7,-2.7762315223484846
10938,Sc2Ni,-0.3564865449999992
10939,Sr(GeAu)2,-0.49123304933333356
10940,LuRu3C,-0.28017117100000066
10941,Sr2LuRuO6,-2.9036728583333327
10942,TbPd3,-0.8839500199999994
10943,Be3Nb,-0.2357920512499998
10944,Ca5Pt2,-0.7033001264285714
10945,H7ClO3,-1.220999502272727
10946,Lu3(CuSi)4,-0.6033886345454547
10947,Zr(MnGe)6,-0.3153530898143242
10948,K2Na2Nd4Nb2O13,-3.180584328439281
10949,Er7(AgTe)2,-0.645528180303031
10950,Ga6Te10Pb,-0.590959107941176
10951,LaInPd2,-0.8015376737499995
10952,RbPrO2,-2.871370733125
10953,NaDySe2,-1.936406967809806
10954,Li6Ho(BO3)3,-2.836419577499999
10955,SrCd,-0.3243393383333335
10956,NaV(OF)2,-2.7008810727586208
10957,TiCo,-0.40051704916666697
10958,Cs2PH3SeO8,-1.8798541812692766
10959,YbPt2,-1.0790492099999998
10960,Rb2Co2O3,-1.33258958
10961,ScAlRh2,-1.089973603749999
10962,GdBi,-0.9050571649999988
10963,CsSc3F10,-4.122852672352217
10964,Sr(DySe2)2,-2.2172991226488095
10965,UN2,-1.5963011000000005
10966,Na4IrO4,-1.5749058940229885
10967,PNO,-1.4810983394444435
10968,LaCu3Ni2,-0.2338679991666671
10969,DyIr2,-0.828325865
10970,CsSnPS4,-0.9195080348234806
10971,TbNbO4,-3.5675587383333336
10972,Re,0.0
10973,Pm,0.0
10974,NbO,-2.2876549474999996
10975,BaIn2Pt,-0.6281409099999999
10976,Pm2CoCu,-0.08736404499999928
10977,Be4B,-0.016717138833332968
10978,ErMg,-0.06694955499999988
10979,KErS2,-2.1324522623124995
10980,Rb4U3(AsO8)2,-2.837467022599999
10981,TcIr,-0.21851007500000108
10982,MgPPd5,-0.5958850004761901
10983,Tm6Mn23,-0.021641676634959202
10984,CdRh2Pb,-0.07087973749999943
10985,Ce5Pb3O,-1.0331222083333331
10986,BaAl2(SiO4)2,-3.4543014907692307
10987,Cs2Te3As,-0.830884627643678
10988,KNa2Sb,-0.4730722865258623
10989,Sr3InRhO6,-2.4871706659090904
10990,TiCuF6,-2.997599717291666
10991,K2SnSe3,-1.1261842930052086
10992,NdCd2,-0.33872218000000015
10993,BaLiAs,-0.9467169327777777
10994,Rb2Na3InO4,-1.6363843309655173
10995,GaBr2,-1.13378407125
10996,SiNi6Ge,-0.37358618437499924
10997,TlPt3O4,-0.8830011966666662
10998,Dy2(TeO3)3,-2.4741972699107158
10999,RbLiZn2O3,-1.795084829761905
11000,Pr7Rh3,-0.47598268099999996
11001,CdSO4,-1.830758822187499
11002,Li2TeS3,-0.9299825310069446
11003,Cs2Mn(PO3)4,-2.6509691044540236
11004,Nd2MgIn,-0.3276435124999999
11005,K2Sn(AsS3)2,-0.873115899977273
11006,SmGaPd2,-0.87609488875
11007,KZr2(PO4)3,-3.1912135204444447
11008,Sm2Pd2Pb,-0.8121511650000002
11009,KCa(PO3)3,-2.8952916470000005
11010,RbYO2,-3.0226329835416665
11011,Na4Al3Ge3IO12,-2.5659430374437777
11012,Ce(CoAs)2,-0.734933633
11013,Sr2Cu2O5,-1.9435007020370374
11014,SbCl4F,-1.4704335108333335
11015,PmMgAu2,-0.7472354718749998
11016,Lu3Ni7B2,-0.559939071527778
11017,Eu2TlCd,-0.3906610083333337
11018,La10Al5Br4,-0.9206797034210529
11019,Sc6Pb5,-0.4351532440909093
11020,KNbCl6,-1.895116454125
11021,SrGe(PO4)2,-2.794469360694444
11022,KSi2N3,-1.0897423521666667
11023,CaH6(SO4)4,-1.805862610833333
11024,KI,-1.6804620439999998
11025,CsSr2Ta3O10,-3.356108152579024
11026,NaZnSiHO4,-2.339819655506465
11027,Sr3MnBiO6,-2.581536620493731
11028,K2AlSO4F3,-2.8839799681022735
11029,EuZr6(PO4)9,-3.2139791292307702
11030,Pr2ReC2,-0.2312811619999991
11031,KEu2Si4O10F,-3.3084019128055555
11032,CoP6(WO8)3,-2.432603808970588
11033,Ba2P2O7,-3.2235058969696966
11034,Y5IrBr9,-2.0164998483888885
11035,KScO2,-3.098326909499999
11036,Ba5P3O12F,-3.3848501720238087
11037,Sr3Ga4O9,-2.7228090603125006
11038,CoHO2,-1.3090558224999995
11039,Ho3Ga5O12,-2.979413631
11040,Na3DyBr6,-2.015499065465518
11041,Al2IrOs,-0.7156714337499999
11042,CaMn4(SiO3)5,-2.927158230668965
11043,Y3Si3Rh2,-1.0033481331249998
11044,Er2Fe12P7,-0.714356279682539
11045,BaAs2F12,-2.7930347715
11046,Ba(B2Pt3)2,-0.42501392424242374
11047,Tb2O3,-3.983580082750001
11048,Nd(MnGe)6,-0.28148235750663164
11049,ZnCdPt2,-0.4441457899999999
11050,Nd6Mn(SiS7)2,-1.9144466500730892
11051,EuSiPd,-0.7622479683333326
11052,MgGaNi2,-0.33597937437500036
11053,Rb2CrAgF6,-2.7392414906666667
11054,Sr3NbGa3(SiO7)2,-3.0451809983695646
11055,Rb2SiP4O13,-2.736918713666667
11056,TcSO6F,-1.8038807078472212
11057,SbS(BrF2)3,-1.865541764829546
11058,Gd2GeBr2,-1.6869233340000007
11059,Cs2LiEuCl6,-2.30538244041954
11060,Cr5InS8,-0.9486238160714281
11061,LiAlCl4,-2.0559350505555556
11062,SiI4,-0.6804660677500003
11063,CsDySiS4,-1.7258753043472912
11064,K3PbAu5,-0.3223752915555558
11065,CsNa2Fe3P4ClO14,-2.4393703621747123
11066,Zr2InAu2,-0.5119622650000004
11067,Li4Be3P3BrO12,-2.8460173043840578
11068,Rb6HgSe4,-1.1440971931249997
11069,Rb2MnF4,-2.9859564161330048
11070,NaHo9(Si3O13)2,-3.694150675394089
11071,LiNbSe2,-1.3099354970052088
11072,Sr2MnTeO6,-2.512326395626438
11073,Cu3Mo8Br2O23,-1.7385069667361108
11074,La3GaBr3,-1.6455302521428565
11075,LaGe2Rh,-0.85813307
11076,MoP2NCl12,-1.1798044460416675
11077,KLiZnS2,-1.3253514285166665
11078,MgPdF6,-2.432859996875
11079,La2Zn5Sn,-0.47667240249999976
11080,Rb3AgSn3Se8,-0.9185584131944443
11081,Pr4C2Cl5,-1.8599491736363623
11082,Cs2NaMgF6,-2.967959221741379
11083,NbPd3,-0.4255900283333342
11084,AlCu3,-0.18943919375000018
11085,Yb2MgIn,-0.3050725175
11086,Ba3(ZnAs2)2,-0.8542271611111114
11087,KHS2O7,-1.863257203795454
11088,TmMgAu2,-0.7923383566666664
11089,MgPSe3,-0.8881159560729166
11090,Ce(As3Os)4,-0.3630884667647064
11091,Ca2SnO4,-2.8860482064285713
11092,UTeP,-0.8866438344444442
11093,K10Mn4Sn4S17,-1.1325516261385467
11094,Tb2CdNi2,-0.42921761799999913
11095,InBF4,-2.8413748577777773
11096,CsMgP(H6O5)2,-1.7407215248505747
11097,Ga2Cu,-0.08417823500000014
11098,DyCdAg2,-0.28619723083333337
11099,Mg3B7BrO13,-2.8891134621527783
11100,Ba4Bi3F17,-3.5053537405208335
11101,La2CdNi2,-0.37085483199999986
11102,Gd3Co11B4,-0.3431195656481489
11103,AgAu(IO3)4,-0.7136823423148155
11104,Ce5O9,-3.942782369285715
11105,LiLuAu2,-0.7352397183333332
11106,V3(Co10B3)2,-0.272772431206897
11107,Cs5FeO4,-1.456274400215517
11108,MgGaCu,-0.17400050083333282
11109,ScCo3C,-0.2949182640000004
11110,N2,0.0
11111,BaEu2O4,-3.081077653571429
11112,Cs2Cr(NO3)5,-1.2499056160519735
11113,BaSrTbSbO6,-3.078299941166667
11114,KV3O8,-2.363597219416667
11115,PuGa,-0.3676175287499994
11116,LiIn3,-0.13163181333333362
11117,ThCr(IO5)2,-1.8114117857142864
11118,CeCr2Si2C,-0.4680834391666657
11119,Tb(Al2Fe)4,-0.42971580153846173
11120,Ba4ScReWO12,-2.994836770526315
11121,Te2O5,-1.4178695207142857
11122,Gd(BIr)4,-0.5676445868518525
11123,LiFePO4F,-2.550199734895833
11124,K2HgS2,-1.0372487909499999
11125,CsI3,-1.1166632701077588
11126,Tb3Se2ClO8,-2.8159911937276783
11127,Nd2Zn17,-0.2676037510526317
11128,LiVO2,-2.4937810420833335
11129,NaLaMgWO6,-2.897355431155172
11130,LaSnIr,-0.8283339800000005
11131,Li2PdO3,-1.6314154052777774
11132,Li3In2,-0.297633832
11133,CaFe2Sb2(PO4)6,-2.4951349968571437
11134,TlGeF3,-2.3089991821666667
11135,Lu5Si3,-0.6791492637499994
11136,Pu(SiPt)2,-0.9031345180000002
11137,NaHg2IO2,-1.0023884335919537
11138,Er2PdRu,-0.7054458187500003
11139,LiPO3,-2.710272883033333
11140,RbSm2CuSe4,-1.7374980571093745
11141,Sm(CoB)2,-0.5177551386666664
11142,KGdS2,-2.1344104898125007
11143,Ba6Re2N6O,-1.098402139
11144,Lu3Pt4,-1.285608973571429
11145,Bi2H18C3(IN)9,-0.5309199732926825
11146,DyMn12,-0.0036142557824945243
11147,CrF3,-3.0417904968750005
11148,Yb2Ni12P7,-0.7438766992063487
11149,AlH15N5Cl3,-0.8135140052083342
11150,Na17(WO3)19,-2.1774343012513917
11151,Sr6Mg23,-0.07033399896551727
11152,TbBi2IO4,-2.3237241031250004
11153,MnSn(BO3)2,-2.4989806241264376
11154,Rb3MoF6,-2.928430638750001
11155,Ba8Eu7Cl34,-2.8120294731632653
11156,SmAg,-0.27710858083333356
11157,ZnBi6P2O15,-2.0569667890277787
11158,Al3Ru2,-0.7046402920000006
11159,RbErP2O7,-3.1552635806060607
11160,K3TaS4,-1.5225657605
11161,Sm3BWO9,-3.3508792942261914
11162,K2NiH12(SeO7)2,-1.4008156387318542
11163,Eu5Ge3,-0.6156694556250013
11164,YbPmCd2,-0.3730972968749997
11165,CuP2PbO7,-2.243608581969696
11166,Zn5B3Ir7,-0.2832163921666667
11167,Yb2CdPb,-0.5424315074999999
11168,AcMgHg2,-0.432525493125
11169,Cs2TcCl6,-1.7964832639846737
11170,Zr5Sn3N,-0.889405823333334
11171,Mg2Co12P7,-0.6253540006349202
11172,Ba5Cu4ClF17,-3.089054710833333
11173,Na3RuO4,-1.7180538402693957
11174,ZrAg,-0.12130619833333345
11175,Sc5(Re2Si3)4,-0.5862910643999999
11176,ZrTlCuS3,-1.2337034754513887
11177,HoCd,-0.31821642999999966
11178,CuPdO2,-0.8841837187500001
11179,Zr2Se3,-1.6397171294062496
11180,Cs3Y2(H2N)9,-0.6158872417852015
11181,Ti2FeOs,-0.5647191029166674
11182,Ca3Ge3(MoO6)2,-2.5573245548749997
11183,NaZr2CoF11,-3.586811981270115
11184,Rb2Hg3Se4,-0.7899850804861109
11185,Ba3Zr2O7,-3.519514509583333
11186,Er2Co3Si5,-0.7326740764999997
11187,CsBa2Br5,-2.4674944688038796
11188,U(SiRu)2,-0.6203084840000003
11189,Ga7Ni3,-0.3279016842499999
11190,K2PdCl4,-1.7258791137142855
11191,Er3Tl2Cu5S8,-1.252219155648148
11192,RbLaSiS4,-1.7708898142857146
11193,Gd2Al6Si4Pt,-0.5277491238461537
11194,RbAlCl4,-2.18487382625
11195,AcAgTe2,-1.0357580497916663
11196,Ce5P12Ru19,-0.8858603397222219
11197,Tl5Ag3(PS3)4,-0.5873354232291668
11198,GaTeI7,-0.6016967924999995
11199,Sr10In17Au27,-0.5299282188271609
11200,RbUCrO6,-2.773102488611111
11201,CsRbMo3P3O17,-2.3921316434172413
11202,BeSiNi2,-0.5082368962499997
11203,Dy5Pb4,-0.5284055136111113
11204,SmInRh,-0.7221015772222219
11205,K4BaNb5O15,-2.9379787850800003
11206,Pm2GeAu,-0.7319670450000002
11207,KBaPS4,-1.4732606551904759
11208,Li2ZrN2,-1.260916647333334
11209,GdSi3Ir,-0.8106478540000012
11210,K2Be(Si2O5)2,-3.101193242411764
11211,Dy2Pb2O7,-2.5509222036363637
11212,Eu2SiN3,-1.3534983574999988
11213,Ba2CaCr2CuF14,-3.4191175735000003
11214,Rb(GeAs)3,-0.20237295571428607
11215,Pr2Si2PbS8,-1.5387413092307691
11216,ZnSb4H18S7N6,-0.5045766833854167
11217,K2ZnF4,-2.8654158394285716
11218,Tm2Pd2Pb,-0.8452496986666667
11219,CsGaP3HO10,-2.5271674609644403
11220,Sm3Si2ClO8,-3.6241600139285715
11221,Ho2Ge2O7,-3.0686734384090912
11222,Gd(NiGe)2,-0.6491323519999994
11223,EuZn11,-0.1969268895833336
11224,SmY(MnGe)4,-0.48370818633908075
11225,Ca7(H6Cl)2,-0.9870785861904762
11226,Nd(BRu)4,-0.45141000962962924
11227,Mo3Pt2N,-0.4145635074999999
11228,PmNi2Sn,-0.3943971956250003
11229,Ba2ZnO3,-2.534315022916667
11230,K4GeS4,-1.2723390743888885
11231,NpAsS,-1.2822799872916673
11232,CaSnO3,-2.6796842760000006
11233,TiH2,-0.6029387211111121
11234,Tb4(Al8Pd3)3,-0.7176468251351349
11235,Ce2(CN2)3,-0.8968867772727265
11236,Ca2AlH10BrO8,-1.9163958898863642
11237,BaSbTe3,-1.0412180550000003
11238,Ba5Cd2(Sb2O)2,-1.4704454592307696
11239,MgSc2In,-0.29271509749999947
11240,CoAg2Sn3S8,-0.6100088905952384
11241,Te16Rh9,-0.6643466552000007
11242,K4Nb6O17,-2.9260481531296305
11243,SmClO,-3.4895558250000014
11244,CoSb,-0.25756015250000086
11245,HfZn2Ga,-0.344661704375
11246,NaY(Te2O5)2,-2.0176832102011497
11247,LiNd(PN2)4,-1.0342971776190484
11248,CeYPd6,-0.8684742864583335
11249,HoB2C,-0.541525827708333
11250,Nb2Te3O11,-2.1725186559375
11251,Lu2B6Ru,-0.7397042405555546
11252,FeAsSe,-0.47859582744791734
11253,BSF7,-2.525415005532407
11254,NaLaFeWO6,-2.571408516655173
11255,KNa2AuO2,-1.322921190183908
11256,Tm3(SiNi3)2,-0.6929276418181819
11257,Sr5(ReO6)2,-2.8759080432456146
11258,CeCd11,-0.1171821879166666
11259,B3Ru2,-0.3316836604999992
11260,CaLaFeNiO6,-2.3526374255
11261,TiPHO5,-2.763046732395834
11262,NaLiTe,-1.1356508482950194
11263,Lu2TlCd,-0.2810758108333329
11264,Na5SrNbP4,-0.6000122393416926
11265,ScCdHg2,-0.26041737874999993
11266,Ba13Si6(Sn4As11)2,-0.682238724081633
11267,Ho2Ni12As7,-0.5335389745238088
11268,Nd10S19,-2.1280144684267235
11269,NaAsF6,-2.698185550818965
11270,NaLaSe2,-1.9832469915598057
11271,Ca2GePd2,-0.7921471879999992
11272,Ti2MnBe,-0.20339073239942618
11273,CsCOF3,-2.332557016321839
11274,Hf5CoSn3,-0.3997629322222214
11275,K2PtBr6,-1.3512537234444442
11276,Sr(H8O5)2,-1.4022591269135805
11277,Cs2CoF6,-2.480116410651341
11278,YGa,-0.6679704345833333
11279,Dy5Tl3,-0.29844938187500025
11280,TiTc2Mo,-0.34631280583333357
11281,Ba8Sc3(Pt2O9)2,-2.665798778030304
11282,Ce5GeBi2,-0.6184214531250003
11283,LiGa2Ru,-0.34902208333333284
11284,Hg3TeO6,-1.0236741764999997
11285,Er(SiPd)2,-0.9313082279999996
11286,RbHfCdF7,-3.5014227984999997
11287,Ca2AlVO5,-3.1746858633333344
11288,TiAlCo2,-0.6249417558333334
11289,NdSnPt,-1.045324117222222
11290,YAu3,-0.7131674454166665
11291,InPt3,-0.35435140500000006
11292,NaGaGeO4,-2.2260639104597693
11293,Cu15Si4,-0.059457945789473776
11294,ZrInCo2,-0.2632423199999998
11295,EuCu(WO4)2,-2.2454979933333328
11296,KSn,-0.2914832265
11297,CsHg5Cl11,-1.1787818166430017
11298,UTc2Sn,-0.07936418875000051
11299,Mg149S,-0.03149948255416651
11300,Rb2PtI6,-1.0330627505555556
11301,AsN2F7,-1.53867417285
11302,NdTl(PO3)4,-2.8005431391203706
11303,NiH12(ClO3)2,-1.2502486342857144
11304,Ba2LaTaO6,-3.507577391500001
11305,NaHoO2,-3.1723933035129304
11306,SrIn2Pd,-0.5967904029166666
11307,Hf(Te2Cl3)2,-1.3083715681818178
11308,Dy2Co2I,-0.6750541880000007
11309,Na2VOF4,-2.9645137282004312
11310,LaAl2BOs2,-0.534976604027778
11311,CsTbF5,-3.429774438990148
11312,Ba3P6(N4O3)2,-1.8874666656521735
11313,Rb2Pd(NO3)4,-1.1343733315789475
11314,Nb6HI11,-0.7286545343055558
11315,NiPt,-0.09406082499999968
11316,Pr(ErS2)3,-2.385235867875001
11317,Ho4Ge6Ir7,-0.8832582405882351
11318,Nd2BiO2,-2.850436664
11319,TmB7Mo3,-0.5676556055303027
11320,Hf2Si4Ni3,-0.7180364677777781
11321,CrGeTe3,-0.41950860000000034
11322,KH(IO3)2,-1.1558977910500006
11323,Ho2Ni12P7,-0.7727173434920636
11324,BaFeF5,-3.345876742142857
11325,GaPO4,-2.592269545138888
11326,Sc2CuRu,-0.4714310412499998
11327,Ba3In2P6(HO3)6,-2.3592181020000007
11328,LuAu3,-0.72218185875
11329,Au3F8,-1.2870254768181815
11330,MgPb2WO6,-2.1405525602500006
11331,SmNi2B2C,-0.48098341222222274
11332,Al9Rh2,-0.5025592468181818
11333,TiNCl,-1.859730766111112
11334,TiH8(OF2)3,-2.1136368917129627
11335,Nd2Ge3Pd,-0.8176697424999997
11336,Ti13Si31Ni40,-0.7001891060515878
11337,Lu2(Ni7B2)3,-0.3687190236206885
11338,LiNiSbO4,-1.8821763740476196
11339,CrGaRh2,-0.38577897937499994
11340,TbInPd2,-0.8127960475
11341,Sm(Al4Co)2,-0.46388754590909026
11342,Ce2SbTe,-1.390451027500001
11343,Ti4CoNi,-0.2916322830555558
11344,ZnCN2,-0.2525500274999999
11345,Pr2ThS5,-2.3683152778906242
11346,Dy10Si17,-0.6262727781481477
11347,Tl2O3,-1.1039688953333333
11348,KLa(PS3)2,-1.3192127615916676
11349,Nd3Sn7,-0.5939060885000004
11350,SbPt,-0.5115465774999999
11351,GdRh3,-0.5503971370833334