,formula_pretty,formation_energy_per_atom
16576,CuPdF6,-1.6860888862500003
16577,AlHSO5,-2.261906255390625
16578,SrGeN2,-0.7084824061979162
16579,CeGaPt,-1.011064409166666
16580,NaB3H4O7,-2.1912372262701143
16581,SbSe5F6,-1.5908161741015625
16582,ErOF,-4.2890125775
16583,NdTlP2S7,-1.0690162647159094
16584,Nd(PPt)2,-0.9670153483333337
16585,Tb15(Ni4P3)7,-1.058064603515625
16586,Th(Al2Fe)4,-0.4082060500000007
16587,NaYSiO4,-3.355091188316913
16588,Sr4Te3(ClO2)4,-2.4356725345614034
16589,TbHO2,-2.995360936249999
16590,Cs2InAgCl6,-1.7434012722528727
16591,Zr4CN3,-1.626566504374999
16592,Hf5Ga3,-0.4415522640625005
16593,CeB4H2ClO8,-2.683186580729167
16594,Sc13Os3Br16,-1.6043089232812502
16595,BaTe2,-1.4745228983333327
16596,Cs2TiS3,-1.6258080639284007
16597,RbGaBr4,-1.5780000774999998
16598,ErI3,-1.6274201150000005
16599,NaPrS2,-2.026806994450431
16600,Li4H6Ru,-0.518358983484848
16601,CsTi6O12,-3.3838089014700548
16602,YbMn4(CuO4)3,-1.7776149195862074
16603,Sr(HoS2)2,-2.4149946491666663
16604,Sm5Tl3,-0.3165645531250001
16605,Dy6Al43Cr4,-0.26973376707547164
16606,NaReO4,-2.269964131925287
16607,MnCoN2,-0.3319804057327591
16608,SrLiBO3,-2.9997611794444445
16609,Ba2CuMo2F14,-3.065100782105263
16610,Ba2LiReO6,-2.741980539833333
16611,Cs4Zr3S14,-1.4627107635940069
16612,CaPHO4,-2.800545497261904
16613,Lu5Co19P12,-0.9042699954166677
16614,Ba5Tm8Ni4O21,-3.16631128390351
16615,Sm2Te3,-1.6936848315000006
16616,GdMgAg2,-0.2946083308333334
16617,Sr3Tm2(GeO4)3,-3.094482225791667
16618,HoBe13,-0.18631307607142894
16619,LuNiSn,-0.6539413949999991
16620,MgAl2Cu,-0.18240740000000022
16621,Ti3Rh5,-0.7758801987499986
16622,RbSbS2,-0.9658009003125003
16623,Y(Cd10Ni)2,-0.08524743746376837
16624,Pr3(BN2)2,-1.4237139514814805
16625,Rb2LiYBr6,-2.1164995180000004
16626,NaInO2,-1.9855354266379308
16627,Be5Co,-0.19185638000000024
16628,Na2In2GeSe6,-0.9426673888332676
16629,Ba2CePbO6,-2.8742209764999997
16630,Al4CrNi15,-0.35517568799999993
16631,Nd2AlNi2,-0.43726178000000004
16632,HfSiW,-0.6267966200000004
16633,ErAgSe2,-1.4350499984635414
16634,KVN2,-0.9283403241875003
16635,Dy3Ga15Ru4,-0.5188047784090906
16636,Cs3Re2N5,-0.41577743587931054
16637,Dy4BClO7,-3.733139907820513
16638,KY2Cl7,-2.6660666388833336
16639,Ga3Ru,-0.3871391431249993
16640,K2Cr3(ClF3)2,-2.66047083776923
16641,Mg5Ti13O30,-3.4239120915277788
16642,BaLiH3,-0.6132631456666665
16643,MgTi4FeO10,-3.223984635520834
16644,Tm2(Al3Ir)3,-0.8531607755952381
16645,Dy4Ga16Co3,-0.5099067506521741
16646,Tm2(SO4)3,-2.676781996482843
16647,Pr(NO3)3,-1.4520052626923092
16648,CsNaS,-1.2153888425359192
16649,MgMnRh2,-0.3235684744827587
16650,SbXeF7,-2.030993206666667
16651,Ba3B6O11F2,-3.207634477499999
16652,Sc5(CoSn3)6,-0.31570300706896587
16653,KTa(GeO3)3,-2.482350473785716
16654,Li2La(NO3)5,-1.4515044980072462
16655,TmGaRh2,-0.8834357435416669
16656,Na3Fe3(PO4)4,-2.4403315954995577
16657,La3U(ClO2)3,-3.6080281461538464
16658,HoB2Ir3,-0.6954546430555553
16659,BaLiGe2,-0.5310288945833332
16660,SmSiPt,-1.1218432499999988
16661,TaHg3F6,-2.4857094190000004
16662,NaLi4(H2N)5,-0.5700087556192536
16663,CeFe2,-0.08163995333333318
16664,RbNb(GeO3)3,-2.3953242337500007
16665,Ga3Ni27B14,-0.32000869888257455
16666,InAs,-0.22866252750000005
16667,BaSb2Xe5F22,-1.9221381215
16668,CoPW,-0.44391725694444517
16669,Nb7P4,-0.8597619903030304
16670,P2IrClF6,-2.3519265911666674
16671,MnBe2Rh,-0.4145521019827587
16672,Ce2Mn22C3,-0.05752296868454597
16673,Ta2Te3,-0.6099385789999999
16674,VCu3S4,-0.8566046878124993
16675,MnAgO2,-1.434045521149426
16676,CsLiSO4,-2.303265280627052
16677,K14Fe4O13,-1.6243748811935492
16678,GaHgCl4,-1.3538050812499998
16679,SmZnAu2,-0.60664992875
16680,Tl2Cr3O12,-1.4367366337745096
16681,Cs2CO3,-2.068125125560345
16682,HfNi,-0.5191513049999994
16683,RbLiH12Se3N4,-0.5929704714459328
16684,Ba6Mg7H26,-0.49132527641025603
16685,HoSnRh2,-0.8100809487499996
16686,YNiSn,-0.6857084055555553
16687,LuGa2Pd,-0.7829379412500002
16688,Cu(PO3)2,-2.2330188568518516
16689,RbNbO3,-2.8390510185
16690,Ba2CaV2FeF14,-3.5848117300000006
16691,MoNCl3,-1.0956498149999994
16692,Cs2Ta6PbCl18,-1.7963874191060025
16693,Y3Pt,-0.7050393456249999
16694,Cs4Fe2O5,-1.622444069702195
16695,LuRe2,-0.32155831083333314
16696,Rb2Ti(AgS2)2,-1.2106542393518522
16697,InSiTe3,-0.463378831
16698,Ba2ThS6,-1.9841887620833332
16699,Gd3OsO7,-3.144721722840909
16700,KIO4,-1.170113799666667
16701,Eu2InPd2,-0.709530427
16702,DyAlPt,-1.151901258333334
16703,La3Co4Sn13,-0.4001406697500002
16704,Sr3LiAs2H,-1.0187354190476188
16705,Lu6Ge4O17,-3.2921909875925928
16706,U(SiIr)2,-0.8008127180000002
16707,NdVO4,-3.1752934849999996
16708,ScNi4Sn,-0.4121876833333336
16709,RbHf2Br9,-1.90915500125
16710,Sr3Li6Nb2O11,-2.8493170184090912
16711,Gd(SiRu)2,-0.8769439799999986
16712,K3Tb(BO3)2,-2.8410654856111113
16713,SrSn(HO)6,-1.779470879047619
16714,ErB2Ru,-0.6370948802083332
16715,LaCdHg2,-0.45763075624999994
16716,Ba3NdRu2O9,-2.5739267686666674
16717,Na2Nb18Tl7(PO8)9,-2.7941336370040455
16718,Na3Sb,-0.4762468061637932
16719,SrBeF4,-3.920951895277778
16720,LiMnPd2,-0.3650735028160925
16721,Na4MoS3O14,-2.0966773709355397
16722,RbMn4O8,-1.9249455614787792
16723,LiErTl2,-0.30482028250000015
16724,Ta3SnS6,-1.3194074958750008
16725,Ti6AgS12,-1.5302587086403516
16726,KBa3(BiO3)4,-2.07381984265
16727,TmPaTc2,-0.21541949666666582
16728,SmZnCuAs2,-0.6743029790000001
16729,Ti3Pb,-0.06047223000000024
16730,Na2Li3GaO4,-2.077936962310344
16731,KTaTe3,-0.8252824703000005
16732,Li2SnIr,-0.4134380779166662
16733,Rb4NpS2ClO10,-2.4724436077777776
16734,BaHf(BO3)2,-3.4097016038333328
16735,La2P2AuO,-1.8802314702777778
16736,Sr21Fe14O47,-2.4380767156707317
16737,K(SiPd)4,-0.5376835603333324
16738,BaNaZrF7,-3.929802611655172
16739,Ba3(PO4)2,-3.2947063543589743
16740,Rb4I2O,-1.4979298064285715
16741,Sn2OF2,-2.2062126320000006
16742,NdMgAg2,-0.29501095083333295
16743,CaNb4O8,-2.9670089035897442
16744,LaTi6(PO4)9,-3.09440181846154
16745,Cu(RhS2)2,-0.716825099642857
16746,TbB2C,-0.520543656458333
16747,CdB2XeF10,-2.5237174352380953
16748,Sm2TiO5,-3.8232373576041674
16749,Nd2Si2O7,-3.6089872943181818
16750,PmPrIr2,-0.5609058131250002
16751,K4NpS2ClO10,-2.480110761499999
16752,MgCO3,-2.4489090569999994
16753,Rb2CoF6,-2.486047620555555
16754,LiBiO2,-1.8420645964583335
16755,Rb2(ReS2)3,-1.0546690382954553
16756,LuSbO4,-2.8914324849999993
16757,La2SbI2,-1.6249792739999998
16758,LiPrHg2,-0.4565379295833334
16759,Na2CoAsCO7,-1.8127026540086206
16760,HoZn3,-0.36412378312500016
16761,CsAg2BiS3,-0.6921788583056241
16762,Tb12Co5Bi,-0.2663422524999998
16763,AgBi(PS3)2,-0.5579795282083339
16764,Ba3GaP3,-0.9477267253571432
16765,SmGe,-0.8653767325000006
16766,KMo3(PO7)2,-2.2924505037333334
16767,LiErSn,-0.6349791415277775
16768,Er3Pd2,-0.7629258449999995
16769,Rb2Mo(OF2)2,-2.6953461972222224
16770,Ba2TbNbO6,-3.4518574909999997
16771,ScTc2,-0.30503557166666556
16772,Tm(BIr)4,-0.5111582520370379
16773,AcClO,-3.5864240641666676
16774,Y2Ir2O7,-2.507227535757575
16775,MgNi(PO3)4,-2.6170647429629637
16776,Sr2TmBiO6,-2.882714586
16777,YbAsPd,-1.022777296111111
16778,Sr2PtAu,-0.8048208983333334
16779,FeCo,-0.06792996750000047
16780,Rb2LiVS4,-1.4331509982291673
16781,Bi5NO10,-1.4991114373437506
16782,HfPaTc2,-0.3639214500000012
16783,KFeSn3O8,-2.0235411621538466
16784,KCaCl3,-2.6109765470999995
16785,Fe2(MoO4)3,-1.8975210810294125
16786,CeMgIn3Rh,-0.4696754941666666
16787,KVCdO4,-2.1473910209642852
16788,LiGaCu2,-0.199819090208333
16789,Li2MoO3,-2.149140360277777
16790,Ba3DyIrRuO9,-2.5887026400000006
16791,Dy2MgIn,-0.3136354250000002
16792,Zr2N,-1.3349768483333335
16793,Tb(Ni2P)2,-0.8264705366666659
16794,Nd5Si9Au,-0.6700683776666665
16795,FeSb2,-0.15600805333333292
16796,TbPRu2C,-0.6793183596666665
16797,Nd2FeCo3Si4,-0.7069331124999991
16798,LaGe2RuRh,-0.8130517959999999
16799,Sr(BH)12,-0.4377069904666666
16800,BeH8SeO8,-1.4668817927690978
16801,PrBiRh,-0.7118237524999991
16802,KGa2NiP3(H2O7)2,-2.21067913912
16803,KLa(SO4)2,-2.571469538270833
16804,Ni3Mo,-0.09303739749999984
16805,ThRu,-0.5361548149999997
16806,Ca2BiAsO6,-2.5414911255
16807,Cs3YF6,-3.5361565065459772
16808,Y,0.0
16809,ZrAlPd2,-0.8031145974999996
16810,HfAl3,-0.39529859499999986
16811,USiIr,-0.7042747933333319
16812,Sc6Ga16Ir7,-0.642437028275862
16813,Nd2CoSn4,-0.566359722142857
16814,BaCd(PO3)4,-2.7198437699074085
16815,Ca3TaGa3(SiO7)2,-3.0820380040217383
16816,WOF4,-2.684573229166667
16817,KYGeS4,-1.5367940667380953
16818,Ta3Ru,-0.21654470125000103
16819,Tb4InIr,-0.5743343987499993
16820,Pr12Co6Pb,-0.13261984526315765
16821,ScH3(ClO5)2,-1.201919228125
16822,Er2MoO6,-3.199731552222221
16823,TlSbO3,-1.7144332416666663
16824,Ba(NiAs)2,-0.6551950740000002
16825,Gd(NiP)2,-1.0141274293333324
16826,Ce2In8Rh,-0.4186919927272728
16827,GaI2,-0.7277312536111116
16828,K2HfF6,-3.733481978444445
16829,Ga2I3,-0.6586228405
16830,RbNb2PSe10,-0.9170108695907732
16831,La6UO12,-3.939659098421052
16832,HfTlCuSe3,-1.0826634308940974
16833,Cs3H5Pt,-0.41665076931034484
16834,ScP3(HO2)6,-2.287637212045455
16835,Sn4BRh6,-0.48819860401515186
16836,Ba2MgReO6,-2.8400599395
16837,CrCoO4,-1.5695163483333328
16838,Na2Hf2O5,-3.1693600809003843
16839,ZnSe2O5,-1.3728781977734386
16840,Na2Te4WO12,-1.785927389110708
16841,FeSi2,-0.39564202000000037
16842,NdPt5,-0.6936440733333337
16843,K2LiGaF6,-3.110233007183333
16844,Nd2Ir2O7,-2.43228281
16845,ScNi4Au,-0.4006438875000005
16846,Mg45Si32(H29O69)2,-2.622720723699634
16847,BaGePbO4,-2.349799352857143
16848,BaLa2Sc2O7,-3.798077470833333
16849,SmZnIn,-0.45015657000000014
16850,Ba2TbReO6,-3.0329658385
16851,HfBRh3,-0.7770593998333325
16852,CaLaFeSbO6,-2.7189304739999995
16853,NaCdIn2(PO4)3,-2.4623216763974587
16854,BaVS3,-1.670104041875001
16855,Ga8BIr4,-0.4415521622435895
16856,AgI3O8,-0.7538864155555558
16857,NbClF8,-2.4004468945
16858,Na4Ni3P4O15,-2.378246083443855
16859,Gd2C,-0.25627278333333453
16860,Nd(Cd10Ni)2,-0.09710862978260894
16861,CoH2Cl2O,-1.1869047495833336
16862,DySnPd,-0.9195271166666666
16863,RbMn6O12,-1.9152797239519064
16864,Ba3Zn5In2O11,-2.1835324285714286
16865,Sm3Ge5,-0.7435294249999993
16866,Zr7As4,-1.0010109150000013
16867,Cl2O7,-0.3025874105555546
16868,MnVHPbO5,-2.0154841311590053
16869,FeCl3,-1.1646887133333337
16870,Er2Zn17,-0.23121826315789468
16871,KHCO3,-1.8861775255000002
16872,HoSn2,-0.5762236783333332
16873,YSiRh2,-1.0156845891666666
16874,Cs2SnF6,-3.0458656162068967
16875,K3TbSi3(HO5)2,-2.8547020998157886
16876,Rb2Te(WO4)3,-2.151437991388889
16877,Re3Se2Br5,-0.8276005464687494
16878,Ge5F12,-2.50086078117647
16879,V2ReTc,-0.36056754374999933
16880,Ag2TeO4,-0.9674452269047625
16881,SrGePt,-0.8975426163888885
16882,Ba2CrO4,-2.731895275714286
16883,Zr2P3H4NO12,-2.6019813570454535
16884,Pr4As2S9,-1.7309397342083344
16885,SrGdCuSe3,-1.7940255735329849
16886,Rb2SnBr6,-1.5713781472222224
16887,EuMgGe,-0.5710675766666675
16888,La2Te3MoO12,-2.3807036873611116
16889,LaAlZn,-0.4406137433333335
16890,UBrN,-1.783114484166667
16891,TmTiClO3,-3.5492809608333338
16892,Rb3ClO,-1.5942042875000006
16893,BiF5,-2.129343782083333
16894,La4MnSe6O,-2.3281556734994617
16895,Rb5Te3H4NCl18,-1.4608842994354838
16896,Tl3Os3O10,-1.3697412735937498
16897,Tl2Te,-0.4408808167676765
16898,Ca3(PO4)2,-3.3259912996794876
16899,PmPuAu2,-0.6007918043750005
16900,Nd2Co14B,-0.11945623009803963
16901,Ba3Cr2MoO9,-2.6907481030000002
16902,Rb2SiF6,-3.433843824444444
16903,Cs3Tb7Te12,-1.6424935358542323
16904,ZrPt8,-0.4824684311111109
16905,TaCoNi2,-0.33104108499999985
16906,TbAgHg2,-0.3461992966666667
16907,Dy7Rh3,-0.6167252675
16908,Ba2TbIrO6,-2.770776511
16909,La(GeRu)2,-0.6872867349999993
16910,Mg2Pt,-0.7084344999999997
16911,LuZn,-0.3612221349999998
16912,BaGd2Si3O10,-3.5676795359374998
16913,LiGaO2,-2.3788747770833334
16914,CaGa4,-0.36554422199999975
16915,La2PBr2,-2.0617487556666667
16916,K3ScV2O8,-2.702039131714286
16917,CeNdAl2O6,-3.6491246105000004
16918,Na2Dy2B2TeO10,-2.854320056849222
16919,Sr2MnP3O11,-2.962092424633198
16920,Ho4MgRu,-0.25213096250000017
16921,Na10Zn7Sn7H24(S13O6)2,-1.1366668894391536
16922,Ca4Er2(Sn5Pt3)3,-0.75118229725
16923,Na2MgScF7,-3.7046061805094044
16924,Na2Zn(HO)4,-1.535702066645768
16925,La2Hf2O7,-4.042177046363636
16926,NiSb2H12(O3F4)2,-1.7770864798275865
16927,Nb2TcRu,-0.25549042374999864
16928,MnCoP2,-0.6137902023994259
16929,LiHoGe,-0.7130662450000003
16930,K2SrP2O7,-2.9239752901527774
16931,NaZr2PdF11,-3.387769856936781
16932,HoNiB4,-0.5790655498611107
16933,MnO,-1.979201203965518
16934,K2Ag2GeSe4,-0.8452407315231483
16935,YB6(HO4)3,-2.6983779234848484
16936,HfTl2PbSe4,-1.0531667082552074
16937,Cs2NaPrBr6,-2.1541500852413793
16938,TbMg4Cu,-0.11709188583333348
16939,Rb3TbV2O8,-2.714017331607143
16940,CrSe2,-0.7685572382291662
16941,PrMgAu2,-0.72081816625
16942,RbMn4(AsO4)3,-1.9825907629612067
16943,CuAsPbS3,-0.5571858532291666
16944,BaRhF6,-2.789288080625
16945,MnVGaCo,-0.30707692698275935
16946,BaIrF6,-2.773120253125
16947,Mn(NO3)4,-0.881838372672415
16948,K2EuF5,-3.4446624376250004
16949,PuTeSO7,-2.2521340485625005
16950,Na2H6Pt,-0.34708144145593894
16951,K3AsS3,-1.168268980482143
16952,Ca2HgPb,-0.5975706712499997
16953,Ba3Zr2S7,-2.149956479322917
16954,Gd5Pb3,-0.5416558149999986
16955,Er5CoSb2,-0.7481062881250002
16956,HgHOF,-1.3350947731250002
16957,Ca5(RuN3)2,-0.7253706150000006
16958,Rb2CoI4,-1.1257692400000003
16959,Na2CaPb3(CO3)5,-2.044143107330903
16960,ErSiRu,-0.8540279033333332
16961,Rb4SnO3,-1.521760654375
16962,Eu(BIr)4,-0.5096921379629641
16963,BaMg149,-0.018733102666666543
16964,Li6Yb(BO3)3,-2.6840345236842116
16965,KSmSe2,-1.985576568171875
16966,PmPrZn2,-0.31605316812499984
16967,La2MgIrO6,-2.9429200695000004
16968,Rb2Ti(SiO3)3,-3.135008846222223
16969,YbZnPd,-0.7405755458333333
16970,Cs2O2,-1.2305101689655173
16971,Pr3Ni3Bi4,-0.5818618574999995
16972,K3TbGe3(HO5)2,-2.30864936981579
16973,TaBe3,-0.23853668625000068
16974,ErCdNi4,-0.3665468333333332
16975,Sr2FeO3,-2.5646116038888898
16976,Li15Pd4,-0.2697662702631577
16977,CeZnGe,-0.5910169125000001
16978,Sr3Sc(BO3)3,-3.3299280914062512
16979,CaFe2P2HO9,-2.4824294372777778
16980,LaCeIn6,-0.4427115125000003
16981,DyUTe6,-1.0425867850000001
16982,Li2Ti3VO8,-3.1162355892261897
16983,Al2CoIr,-0.7928023012500001
16984,Er6Co30P19,-0.8454845835151518
16985,Tl4PbSe3,-0.5796413872330732
16986,KSnPS4,-0.9185025330476181
16987,PtCl3,-0.8557708347916666
16988,NdAs,-1.5032571225000009
16989,Te2Pb3(ClO3)2,-1.5873233203846149
16990,CsSO3,-2.074752283711207
16991,Rb2LiYF6,-3.5896462970000003
16992,Ni5Sb2,-0.2250346685714289
16993,V3Si,-0.44520859374999944
16994,UCr5P3,-0.5257057755555555
16995,CsNdZnTe3,-1.3135533263218389
16996,Tm2TlHg,-0.38099793041666663
16997,GaTeCl,-1.064969323333333
16998,La2InNi2,-0.4529147280000004
16999,Na2BeH4,-0.3265809175862075
17000,NaAlH12(SO7)2,-1.7047100561767243
17001,K2Sn3(SbS5)2,-0.842468276014706
17002,Na2Sn3Au,-0.27268565426724106
17003,Cr2O3,-2.366587769
17004,Sr2MgGe2O7,-2.81385250486111
17005,Rb2TaCuSe4,-1.2048915761718746
17006,Li3Y(NO3)6,-1.4341248588988103
17007,NbW,-0.04151856500000051
17008,LaTiI5O16,-1.5441004226449278
17009,Na3InCl6,-1.905973923965517
17010,Ti2Ni,-0.2773286063888894
17011,Gd2S3,-2.381468514375
17012,TmTlTe2,-1.2352255474999998
17013,PdPb2Se2(ClO3)2,-1.3496525645913455
17014,TmIn3,-0.3584388741666671
17015,Y5(Ge5Rh2)2,-0.8132563593859653
17016,NaP(HO2)2,-2.1497259142043825
17017,Ce(CuSi)2,-0.5472530850000006
17018,KTmF4,-4.049329357166666
17019,MnNbH8(OF)5,-2.0417934547715517
17020,Mn6Si7Ni16,-0.41652924336504143
17021,Sr4Al6MoO16,-3.2945174426080235
17022,Rb3BAs2,-0.3287239919444443
17023,EuBe13,-0.10207798571428636
17024,TbMgHg2,-0.46325825749999994
17025,PmN,-1.61102832125
17026,Re2(HgO2)5,-1.4342856273529416
17027,KSnI3,-1.1282947771
17028,K2MnPCO7,-2.326509931438698
17029,Na2MnPO4F,-2.6669957915964235
17030,NaB5PbO9,-2.678939667024067
17031,Nb5SiSn2,-0.3312391418749998
17032,HoB4Os,-0.5888670073611108
17033,Rb3HoV2O8,-2.7207068680357147
17034,AlH6BrO4,-1.6559227264583332
17035,CsGdSiS4,-1.7330015243472903
17036,AgAuCl4,-0.7762192736111112
17037,NaZnF3,-2.769232088810345
17038,Ba5Al5Pb,-0.3308279290909091
17039,K2Mn(SnSe3)2,-0.9437276409539573
17040,Ho5(Ge5Ir2)2,-0.771814381842104
17041,Sc2AlTc,-0.37082731499999966
17042,HfZnCu2,-0.1967917425000003
17043,CeMn2(GeO3)4,-2.4064794745190565
17044,Sr3(AlN2)2,-1.1641277308333342
17045,ErCuPbSe3,-1.2350505524218753
17046,CdO,-1.3647115625000001
17047,Ti4Co4Si7,-0.726999164888889
17048,Ge2Mo,-0.16620756416666774
17049,SiH17S3N5,-0.5501147867067311
17050,SbSI,-0.606170199375
17051,Tb2PdRu,-0.6230812212499997
17052,Hf2Cu,-0.1577850166666662
17053,RbNa2Fe3P4ClO14,-2.439275650557471
17054,EuCdAg,-0.32350193222222207
17055,TbMnO3,-3.031316431086207
17056,Rb3SbS4,-1.1390562975000003
17057,ZrBi,-0.37387565083333385
17058,CeAlPd2,-0.8290230481250003
17059,K2PHO4,-2.3962261413750006
17060,Ba,0.0
17061,La3CuSiSe7,-1.7368715226171876
17062,Sr2ScGaO5,-3.199338087314815
17063,Er4Ni2C5,-0.39123469999999955
17064,TeAsRu,-0.5598410225
17065,Y3CuSiSe7,-1.5873354151171881
17066,Ag3(PO4)2,-1.608541137435897
17067,La(AlBr4)3,-1.7695854353125
17068,TmGaAu,-0.7792340097222219
17069,Nd2Co2SiC,-0.4452443600000002
17070,ErInPd,-0.8150678588888888
17071,HfNCl,-2.193805076666667
17072,HoMg,-0.0735353049999996
17073,K10Tl7,-0.10357792078431374
17074,Cs2NiAs2,-0.4049001971724138
17075,Gd(SiRh)2,-1.114855691999999
17076,LiNi2P4H3O14,-2.234514642986111
17077,VCo2Ge,-0.24526192375000022
17078,Tm(TiGa2)2,-0.528514769047619
17079,TbInNi,-0.4970961677777773
17080,NiO,-1.2180853000000003
17081,SrLuCuS3,-1.9342750135069444
17082,Sr2FeBrO3,-2.5663087654761907
17083,HfGa,-0.5067022270833341
17084,Mg3(Al9W)2,-0.10109191282608675
17085,SmNiO3,-2.4529482349999987
17086,TlHg3,-0.03668404958333338
17087,RbTa3(TeO6)2,-2.6824189434722223
17088,Eu2O3,-3.170390426749999
17089,K2RhF6,-2.4905675901111106
17090,K3Al2(PO4)3,-2.9411716591999997
17091,BaB8O13,-2.94432334753788
17092,Ba3Ag2,-0.2289925340000001
17093,Ba2InIrO6,-2.1886217226666673
17094,Cs2NaAl3F12,-3.6570669829118776
17095,Co(PO3)3,-2.3198453603846145
17096,Yb2(Ni7B2)3,-0.3372638529310342
17097,RbFe3P3(O4F3)2,-2.6316105725000005
17098,Yb3Ni13B2,-0.40799367157407335
17099,RbTeHOF4,-2.3803870912500003
17100,AlH3,-0.14094968374999972
17101,HfSiPd,-0.9571370866666662
17102,Be12V,-0.10248673076923118
17103,Mn2O2F9,-1.977045324874005
17104,Na2LiGaAs2,-0.5585077527394636
17105,BaS2,-1.7532170120833335
17106,DyB2C,-0.5320909073958342
17107,SmGa3Au,-0.5795790934999999
17108,PrPbAu2,-0.6122230462499996
17109,Ho2GaRu,-0.5300075506250002
17110,BaSnHg,-0.5766795916666666
17111,Ce2Zn4Ru,-0.38107993
17112,Dy2B6Ru,-0.6724932183333334
17113,La4SnSb2,-1.0669498607142864
17114,VSiOs2,-0.3192580850000013
17115,CrCo2Ge,-0.12676994375000028
17116,Hf2MoRh,-0.5300909400000009
17117,K2Sn(H2N)6,-0.4119705457619047
17118,SbTePd,-0.5776493791666665
17119,MgScCd2,-0.25467398875
17120,As3Rh,-0.43380452937500014
17121,Ca2CdSb2,-0.8620967455000003
17122,Ac2ZnHg,-0.34215183750000033
17123,ZrTlCdF7,-3.2096837390833337
17124,Ag8SnS6,-0.32222472797222207
17125,Sb2PbO6,-1.900305225555556
17126,RbCaHfF7,-4.0312334094999995
17127,LuSiPt2,-1.1790120649999993
17128,In2Pt3,-0.4744990819999998
17129,Pr4CdPt,-0.5211773683333328
17130,HfAg,-0.11511337583333336
17131,Ca3GeN,-0.8072252419999998
17132,Y(FeB)2,-0.436886659000001
17133,InPd,-0.49544798499999976
17134,Ac2TlSn,-0.4715225133333334
17135,TbCoSi,-0.718334336666666
17136,FeSn,-0.0027313125000011005
17137,Eu2TlCl5,-2.432010838541667
17138,TbOF,-4.2646219425
17139,Ca4As7Ir8,-0.6410223415789474
17140,K2PuO4,-2.7503777408571426
17141,Na3HfF7,-3.613345253377743
17142,CsAgPSe3,-0.7529995079103807
17143,YbPaO4,-3.6783975816666667
17144,CaU(SeO4)2,-2.494191232890625
17145,Ti(SeO3)2,-1.9756995158912036
17146,LaTlAg2,-0.2744319329166669
17147,YPtF7,-2.904095475462963
17148,HfSiOs,-0.8577537938888895
17149,Gd3(AlNi3)2,-0.5308673372727267
17150,Zn2CuIr,-0.16376481249999975
17151,Eu(ZnP)2,-0.7169739203333336
17152,Tb2Al,-0.28219549916666625
17153,GeIr,-0.3280739300000004
17154,AcYbMg2,-0.07515245312499985
17155,MnCuO2,-1.5397280607327595
17156,BaCd2Pt,-0.5111836250000001
17157,Dy2SO2,-3.5891890746249997