,formula_pretty,formation_energy_per_atom
7208,BaNiF6,-2.6448813131250004
7209,Nb25S48,-1.3656930015068502
7210,BaSiPd,-0.7051367150000001
7211,Ta11(NiSe4)2,-0.7511841854166673
7212,Sr(BO2)2,-3.1235381182142854
7213,ErGa3Os,-0.4854178435000004
7214,Er(CoGe)2,-0.6038334320000004
7215,Zr6Al7Cu16H3,-0.3725116807812503
7216,ThTaN3,-1.678885184500001
7217,NaNiAsO4,-1.7547035452216748
7218,K2NpO4,-2.896346573535714
7219,TbInCu4,-0.27077664999999956
7220,Ce3(CuSn)4,-0.44717445863636324
7221,TlCuPS3,-0.5967078272569447
7222,Nb3CoS6,-1.2928625993750011
7223,CsH5O3,-1.4022485644923377
7224,TmB2C,-0.5589948843749992
7225,K3NaNp4H4(S2O13)2,-2.458323458048852
7226,Cs2NaSmF6,-3.555675178241379
7227,YRe2SiC,-0.4652267523333336
7228,Li4Al3Si3ClO12,-3.1222938479710143
7229,RbIO4,-1.1700262395833338
7230,Nb(SeI)2,-0.9117613619374992
7231,Ti4AlGe7,-0.44684737819444464
7232,LiHfPt2,-0.9435670383333337
7233,USnRh,-0.4577995505555571
7234,NdCuGe,-0.618228201666667
7235,Ho2SiGe,-0.8357899162499995
7236,Zr6FeSe2,-0.7842541827430567
7237,Lu2B6Os,-0.7197615097222223
7238,La4Al5Br2,-0.9739285795454545
7239,Pr(FeP3)4,-0.5921063661764705
7240,Be4Si2H2O9,-2.8474132614705887
7241,Ba(P2Au)2,-0.4750651133333333
7242,Ho2MnNiO6,-2.863871247793104
7243,Na2H4Pt,-0.3605735218719214
7244,In5CuTe8,-0.5437646935714281
7245,Ta2Pd3Se8,-0.9150661372115383
7246,Tl2Ge2Se5,-0.6125987059317128
7247,Na10CaSn12,-0.2632424393703149
7248,NdSiPt3,-1.0555263060000002
7249,Tb2Co3Si5,-0.7363635384999988
7250,Cs2Al2B2O7,-2.976599694553492
7251,Ag3AuS2,-0.2331520593750002
7252,YAlAu,-0.8116946313888889
7253,TmTlSe2,-1.6033256761718748
7254,Na5InO4,-1.6856043734008614
7255,Lu5(In2Pd)2,-0.6788750200000002
7256,Pr5Sn4,-0.747932344722222
7257,Er(Al5Fe)2,-0.35160256384615324
7258,FePd3,-0.10825452499999955
7259,CsVCl3,-1.9026452415862067
7260,Zr7Pt10,-1.075277669117646
7261,K3Ta8O21,-3.224388746375002
7262,SrCuAs,-0.8056819005555559
7263,Sm(ErS2)3,-2.3808406003749996
7264,Eu2Zn2P3,-0.8365333928571437
7265,La5Al15Cu2Au3,-0.5904897521999999
7266,Ba2HoSbO6,-3.101410098
7267,Pm2CdGe,-0.4902027150000001
7268,Zn2AsHO5,-1.7083459805555554
7269,Rb4V2S4O19,-2.184546165948276
7270,LiMgSnPt,-0.6660068770833334
7271,BaNb10SiO19,-2.8720246732258063
7272,Cs2YSi4O10F,-3.3094923831265968
7273,BaInCuF7,-2.95142571325
7274,LiAlSe2,-1.3252349382552078
7275,Cs3PuH4O7,-2.043877870919539
7276,LiInSe2,-1.1064678070052079
7277,GdAlZnGe2,-0.4452647819999996
7278,Er3NiGe2,-0.7966474800000007
7279,LaMgTl,-0.37475797499999985
7280,K3VSO3,-2.0724264096406255
7281,Ce(IO3)4,-1.3371454388235289
7282,Ce2Se3,-2.1071150554062497
7283,Na3Nd9B8O27,-3.3397107408082665
7284,AgTe,-0.2568993677083329
7285,Tb2Ge5Ir3,-0.7276387045
7286,Ba2TmPaO6,-3.7794221096666663
7287,Cs3BP2,-0.38755755243773926
7288,LiMnAsO4,-2.077142708037767
7289,Rb4SbRhCl12,-1.6993727038888882
7290,In2Hg6(PCl3)3,-0.9055300657499998
7291,ZnBr2,-1.2676684343750002
7292,NdBO3,-3.4655496003333326
7293,TbTl(PSe3)2,-0.9152887474062503
7294,K2Ti(SiO3)3,-3.1448467826222224
7295,Tl6V7P5O31,-2.337130958707483
7296,AlCr3B4,-0.4456046170833323
7297,Tb5(In2Ni)2,-0.518607562272728
7298,Pr3(TaN3)2,-1.527920067727272
7299,TaN,-1.3525822108333354
7300,Pr3Si2S8I,-1.7681125807142861
7301,Nd2InGe2,-0.7378345500000002
7302,LiZnRhF6,-2.4124297109259256
7303,TbI3,-1.6622028812500003
7304,Na4TiAs2O9,-2.307961258096265
7305,DyInAg2,-0.3688619908333335
7306,YNbO4,-3.5506122427777775
7307,Li9Cr3P8O29,-2.701942373707483
7308,Eu(P3Ru)4,-0.6254919244117649
7309,Ba2YRuO6,-2.8353785641666667
7310,Rb2V(PO4)2,-2.671239736474359
7311,Th(AlC)4,-0.20022326555555578
7312,La3C2I3,-1.196396385
7313,Ba3Nb2ZnO9,-3.0713102303333337
7314,Tl4SiS4,-0.7592444645370375
7315,Sr2NdTaO6,-3.515704767833333
7316,Er2MgGe2,-0.7592876900000001
7317,LiSmS2,-2.0539040036458336
7318,NOF,-0.8316942483333337
7319,LaAsO4,-2.8421711533333327
7320,YSb,-1.2551367833333336
7321,Li2Cr5(Si2O7)2,-2.6601455856666654
7322,Ca(H2N)2,-0.7023065728571437
7323,Nb3Ir,-0.4026638687500004
7324,TbWC2,-0.26803861187499933
7325,TbGaAu,-0.7908975658333333
7326,Nd3Cu4(P2O)2,-1.4639771848717946
7327,HgP2PdO7,-1.9585066987878783
7328,Er2GaNi2,-0.5967340015000004
7329,GdSbPt,-1.2534055599999998
7330,AgPt4,-0.03717303733333281
7331,HoCd3,-0.26664292999999994
7332,U5ClO12,-3.62842081138889
7333,Yb3Ni7B2,-0.5163327406944435
7334,CaTeO3,-2.4110722705999996
7335,Mg149Cr,-0.01933335520000014
7336,RbNdO2,-2.901606239375
7337,LaGeIr,-0.8493516800000004
7338,KRb2RhF6,-2.6288514413
7339,CsCu2Cl3,-1.2570996579885054
7340,BaAlSiH,-0.4604371612499998
7341,RbH2(IO3)3,-1.074057516166668
7342,Yb2PbAu2,-0.8260066535
7343,K3NaOs2O9,-1.8123043067034492
7344,Th6NiBr15,-1.911745658295455
7345,K2O,-1.247857583666666
7346,Ba3Te4O11,-2.235508284722222
7347,RbEu3F10,-3.7219373291071434
7348,TbGe2Pd,-0.7739735906249994
7349,PIr2,-0.4112569077777775
7350,KCuPdSe5,-0.7180564805898442
7351,Na4Ca2SiP4,-0.6859750326854752
7352,Ca2As3Pb3ClO12,-2.1591663033333335
7353,LiMn3Al2(HO2)6,-2.0692722663386007
7354,K3Bi2(AsO4)3,-1.9452649837000002
7355,Mn3AlC,-0.1919325907586213
7356,Sr2ErBiO6,-2.8724035558333325
7357,S2O5F2,-1.8029363909722231
7358,RbSb,-0.5151359468750001
7359,GePbS3,-0.7331392003750004
7360,YIn2Ni,-0.43950267541666665
7361,NbTlTeO6,-2.0569577937037042
7362,Cs2CN2,-0.5779883545057468
7363,Rb2LiBiCl6,-1.932275289833333
7364,Sr2ZnN2,-0.7085313586666672
7365,ScCd3,-0.21440229624999985
7366,Na3GaSe3,-1.1687918266694892
7367,LaBr3,-2.4230521156250004
7368,MgGaIr2,-0.46513954937500035
7369,UPbO4,-2.9676407875
7370,PAuS4,-0.5056590609722219
7371,MnGaRh2,-0.529181723857759
7372,La7C3I10,-1.4485511935000006
7373,RbGd2CuS4,-1.9052555681249999
7374,CdPSe3,-0.5892661490729161
7375,CsCeCuS3,-1.6608761845510056
7376,Pu5Rh3,-0.371828902499999
7377,Ca3La32(OsI12)5,-1.6026218148500004
7378,Cs2InAgF6,-2.6385272907528736
7379,CaInAg2,-0.29960517833333355
7380,ThI3,-1.4919749593750002
7381,Na5TlO4,-1.4933328414841953
7382,GdRuC2,-0.19225134374999975
7383,PuWC2,-0.18603131999999967
7384,Cs2ZnSi5O12,-2.9996409860431044
7385,La2(MgAg3)3,-0.2792249292857143
7386,K3MnO4,-1.77328780399138
7387,LaSbRh,-1.0715061749999997
7388,LaInNi,-0.46854978388888846
7389,LiBeP,-0.5851161972222219
7390,Ba6Pr2Co4O15,-2.515916092037037
7391,AsIF12,-2.023856255714286
7392,BaIn,-0.4201379125
7393,ErCuPb,-0.37082236833333343
7394,Ce2Sb,-0.8126175300000007
7395,Ba(TmS2)2,-2.4243193797619043
7396,Y5(Ge5Os2)2,-0.5521877399122813
7397,Cs2Mn3Te4,-0.6871111138505752
7398,PrGeRu,-0.6577616250000003
7399,Kr,0.0
7400,Ti2MnRu,-0.5047804848994257
7401,K2TbCl5,-2.5465433245
7402,Ca2Cu6P5,-0.4663924412820513
7403,K2BiMoPO8,-2.3285160241794873
7404,Hf2Ga3,-0.4952984094999998
7405,Ca3Ga3Ir2,-0.6217393437499998
7406,Nb2(Co7B2)3,-0.2630809320689662
7407,Tm2CdGe2,-0.6798723936666662
7408,DyInAu,-0.7410740933333338
7409,LaSn,-0.8019649650000007
7410,PrPt2,-1.022731471666667
7411,CsPd2F5,-1.8970183975538797
7412,TbPt2,-1.0972458849999995
7413,LiTbHg2,-0.44771770083333307
7414,LaHBr2,-1.9318842825000004
7415,LuB4Os,-0.5979272269444446
7416,Pd3Pb,-0.2999281275000003
7417,MnGaRu2,-0.2652931213577583
7418,NdGeRu,-0.6688656849999989
7419,Ho(AlCu)6,-0.3499197269230768
7420,NaMg4V3O12,-2.718821686827586
7421,ZnFeRh2,-0.2769313800000006
7422,SbH4NCl6,-0.9958836395833336
7423,TlPd3,-0.22120699208333328
7424,AlH15(OF)6,-1.7909322785714288
7425,Zr(CoSi)2,-0.7803848180000003
7426,Er3Ir,-0.6160016237499999
7427,Ba2TlZn,-0.2942011883333333
7428,Mg(FeO2)2,-2.107834707857143
7429,NbO2F,-3.1681933281250005
7430,CsHS2(O3F)2,-2.0134168774317533
7431,Al2Se3,-1.12332477040625
7432,Sr3Sb4S9,-1.2606482558203127
7433,TlCrP2O7,-2.490950631363636
7434,KMg6P7O24,-2.9515057558245616
7435,KMnSn3O8,-2.0822944669946954
7436,UB4Ru,-0.5337068861111108
7437,NaTmS2,-2.1012054048670974
7438,PmHgRh2,-0.4024184281250003
7439,Ba2Mg(PO4)2,-3.2333733060897436
7440,P,0.0
7441,Sm4Mg7Ge6,-0.5534985505882354
7442,Nd5(In2Pt)2,-0.7582147809090913
7443,Na4Sn3S8,-1.0029985707471265
7444,Tm3Ni7B2,-0.5463056161111114
7445,CsSm(NbBr3)6,-1.5161326872281173
7446,K3HoV2O8,-2.731224244214286
7447,Pb3WCl2O5,-1.8341982304545454
7448,Ca2NiIrO6,-2.094400533000001
7449,SmZnCuP2,-0.7639639323333334
7450,Er4Ga12Pt,-0.6103509305882355
7451,Ca(AlSe2)2,-1.4706671999107144
7452,PrBPt2,-0.9044483943749988
7453,GeI2,-0.5942236983333338
7454,Tl2Te2O5,-1.367260450462963
7455,LiSi2B,-0.14322674718749973
7456,RbNdF4,-3.956702327916666
7457,Mg2AgRh,-0.38046713416666655
7458,LiU4As3O20,-2.8191432033333337
7459,K3Nb3(BO6)2,-2.880711047366667
7460,Y3Al3Cr2O12,-3.4212600816249994
7461,Ho10Mn13C18,-0.3265192715391092
7462,MoP4,-0.33139304866666636
7463,Be4AlFe,-0.23678578833333278
7464,La11In9Ni4,-0.4998178972916669
7465,PdSe2O5,-1.084406515585938
7466,Cu6GeWS8,-0.6418477046874997
7467,Ni21(B3Sb)2,-0.2768003225862068
7468,Cs4In2S5,-1.2445078147590125
7469,Na2CeO3,-2.833642289267241
7470,Sr(SnAs)2,-0.5508533633333336
7471,K(Zr3Te4)4,-1.1898951949310352
7472,EuNbO3,-3.142777144
7473,Ba3V4PbO14,-2.734256708181818
7474,NdCuSb2,-0.7648763162499996
7475,Yb3Ag2,-0.36477992666666664
7476,Rb2NaAl3F12,-3.64955592591954
7477,SmInRh2,-0.65750622875
7478,BaRuO5,-1.7870270492857143
7479,Ba2CaSi4(BO7)2,-3.3124087403623186
7480,La2Fe2Si2C,-0.5626895128571435
7481,Zr4CuS8,-1.7149794634615385
7482,TlBi(SO4)2,-1.830744283923611
7483,Ba(CoN)2,-0.5102202760000012
7484,Ce(GeRh)2,-0.8569313510000001
7485,LaIn4Ni,-0.39211080083333333
7486,Ti2Re,-0.31738108055555614
7487,NaPuF4,-3.6446770872030663
7488,TiReTc2,-0.275028737083332
7489,Pt3O4,-0.8268794257142856
7490,KTaN2,-1.1064422090312505
7491,CaCe4Si3O13,-3.631656825238096
7492,TiTe2,-0.9781456111111121
7493,LuH2,-0.7953379400000001
7494,Ba2GaGeN,-0.6567044805000002
7495,TbCu4Ag,-0.23356400277777745
7496,U(SiPt)2,-0.776471930000001
7497,Cs2TlAgCl6,-1.5831982825862063
7498,NdAl3Pd2,-0.8508650333333332
7499,KNa2Li3Fe2(Si2O5)6,-2.9652157851220693
7500,Rb3CoF6,-2.67628281125
7501,K2Th(AsO4)2,-2.535971007961538
7502,Rb2AgAu3I8,-0.7588258522619046
7503,As(S2F3)2,-1.7573475435795454
7504,Ho12Co7,-0.1943272768421055
7505,Ni2SnP,-0.3968675377083333
7506,Ho6CoTe2,-0.7493421683333337
7507,Lu2TiO5,-3.9185515588541664
7508,As(BrF2)3,-1.6710301922500002
7509,Ho2Sc3Si4,-0.7994862480555559
7510,EuCd11,-0.11566451791666665
7511,Nb3(Ni10B3)2,-0.3505807260344825
7512,Cs2Sr2Li3B3(PO4)6,-2.9080360617298853
7513,Li2CaGeO4,-2.6042605814583326
7514,SnF2,-2.5696585158333334
7515,Sc2Pd,-0.6611137000000001
7516,Zr(InBr3)2,-1.4477494333333334
7517,La2Au,-0.5537843633333335
7518,La3Sn,-0.47767441250000076
7519,Rb2V2Si8O21,-3.045566853939394
7520,Li2U3P2O15,-3.225055244015152
7521,U3TiSb5,-0.5066435653703694
7522,Er4Ga12Pd,-0.5916596482352946
7523,SrCaGdBiO6,-2.822197903666667
7524,NdPd3,-0.7885090600000009
7525,Ca2YbRuO6,-2.6700634549999998
7526,Eu(SiAg)2,-0.33305766366666634
7527,HfSn2,-0.2686332733333343
7528,KCr2FeO8,-1.8042121623333334
7529,La6OsI10,-1.5637861238235293
7530,Ca3BiP,-0.9641058646666665
7531,LiThHg2,-0.2890501858333332
7532,HfZrN2,-1.906436535000001
7533,Hg2SeO5,-0.9208092249804691
7534,Sr2CaIrO6,-2.5463622688333336
7535,Y5GaCo5,-0.2922301268939394
7536,ScAlGe,-0.5870992149999997
7537,NiIr3,-0.006604770000000926
7538,Pr2TiO5,-3.7593655110416675
7539,PW,-0.3690031079166669
7540,Li2AgSb,-0.5061579808333332
7541,Gd2Sc3Ge4,-0.9068816824999999
7542,Sn2SI2,-0.733333445625
7543,KPb2Br5,-1.4769711925625
7544,U6Co30Si19,-0.5132771002727271
7545,Ce2(Ga3Rh)3,-0.6949634144642859
7546,Na10Co4O9,-1.475692897848576
7547,SmFe2SiC,-0.4491196729999999
7548,CaCr2O4,-2.7009539471428576
7549,Cs2V4O9,-2.4725746820574717
7550,InTeI,-0.6979379441666668
7551,TlNO3,-0.9896292216666666
7552,Ho(CoSi)2,-0.8047413080000005
7553,Na4Sr2SiP4,-0.6610833479885055
7554,NdCoGe3,-0.5672561199999997
7555,Sr3(GeP2)2,-0.7928755753703709
7556,Na2Pd3O4,-1.1454307059003825
7557,YbPaIr2,-0.687466755
7558,ErGa,-0.62687148875
7559,HfCl4,-2.3240993449999996
7560,PrTl3,-0.33607266125000024
7561,AgRuF7,-1.8658976426851852
7562,Nb10Se40I3,-0.9399144450707545
7563,TmRh2,-0.7648836572222221
7564,Eu(Al2Fe)4,-0.3559871596153856
7565,Rb2GeS3,-1.197045077395833
7566,BaScCuS3,-1.872586289895833
7567,KMnP(OF)3,-2.7883142290849303
7568,CsAlBr4,-1.815322296321839
7569,EuZnGa,-0.4437548875000002
7570,CsNaTiO3,-2.7473353546360157
7571,K2Ho4Cu4S9,-1.6596256339013167
7572,ErAl2,-0.5069284766666673
7573,MoBr2,-1.0461299416666665
7574,Tb3Os,-0.23689549875000004
7575,NdNi4B,-0.42162362652777813
7576,Hf(TlS)4,-1.0220015437592591
7577,CsCd13,-0.043299287709359646
7578,KSn2Br5,-1.3674965606875
7579,Eu2As7Pd12,-0.6022398673809529
7580,As3Pb2BrO6,-1.619433155208334
7581,InI3,-0.7828857718750004
7582,Li2Ti2Sb2O,-1.3007093340476186
7583,SrLiN,-0.6169230583333333
7584,Er2Se3,-2.15779375390625
7585,Ba2ErReO6,-3.0607465415
7586,Dy3Ru,-0.32385693874999966
7587,Y(Ni2P)2,-0.8257544290476184
7588,MnCr4CdSe8,-0.8110181504772161
7589,Sr(AlGa)2,-0.3745979423333331
7590,Rb3Er3(PS4)4,-1.374198218301282
7591,Mg3TiNi2,-0.26090036597222205
7592,Gd2Ge2O7,-2.9951654519696986
7593,B6P,-0.2902561697619045
7594,Cs(CoAs)2,-0.38813879758620756
7595,Dy3(CuSn)4,-0.5087007627272726
7596,NdAlPd2,-0.881335628125
7597,Be15(Nb3Ni4)2,-0.38335245431034476
7598,Yb2Ge6Pd,-0.498730701111111
7599,LiSm(PO3)4,-2.9276097248148147
7600,BaSi12Pt5,-0.49340842083333314
7601,K2MnCl6,-1.8173068348812258
7602,CuPS3,-0.5238278775416667
7603,Mn5VO8,-2.139714515689655
7604,CuNiSbS3,-0.5532129748958337
7605,CeNiP,-1.1703965286111107
7606,CsDyCdTe3,-1.2908638471551726
7607,YbBeF4,-4.050551150416667
7608,Fe(BMo)2,-0.4384958306666661
7609,Cs2HgI4,-1.2654983865517242
7610,Na2Al2Sb3,-0.3672367508004929
7611,KHfH2OF5,-3.1154287698
7612,Y3(CuGe)4,-0.6364309800000001
7613,RbPbCl3,-1.8667621915
7614,NbP2Se2Cl5,-1.1798911926354165
7615,LuInNi,-0.49879024888888857
7616,Ba2InCuO4,-2.2261865999999997
7617,Ca3Pr2Sb3O14,-2.804116223181818
7618,Yb11(SnBi4)2,-0.8030858595238098
7619,AcNiO3,-2.4554765755000005
7620,K4GeH4N2O3,-1.1813157142500006
7621,Pm2SiPt,-0.7241873387499993
7622,Sn(NO3)4,-0.9480016351470594
7623,TbCl3,-2.7237054987500002
7624,TaTe4Os,-0.5188815295833334
7625,Ba2Mg(BO3)2,-3.1297909062121207
7626,NaSrVF6,-3.5378695236909325
7627,K3ErCl6,-2.4983506788999996
7628,BaCaPb,-0.5910755308333334
7629,Tm12Al7Si,-0.37929941350000007
7630,SrLi4Ca(SiO4)2,-3.0480537720312495
7631,Cu2PbO2,-0.9810454259999993
7632,SrHgPb,-0.4660894922222223
7633,LaSi4Ni9,-0.5679912274999991
7634,CeH8(SO6)2,-1.8380471330978267
7635,CuBiPtS3,-0.6186438528125002
7636,K2Mo2Se2O11,-1.8266393026874999
7637,P2S2O3,-1.6732047239880958
7638,SrTi(PO4)2,-3.180629781805555
7639,Mn2PtRh,-0.2816344764655172
7640,YCI,-0.9855873988888888
7641,Li2YTl,-0.25137372166666694
7642,TlGaSe2,-0.8168470160677086
7643,TbTlS2,-1.7361292048958337
7644,Hf7Au10,-0.5522163802941172
7645,BaNaGaF6,-3.42518227183908
7646,Y4Fe28BC,-0.08895099090686391
7647,Cs2Cu5Se4,-0.6373999613851876
7648,Li3HoSb2,-0.8720630533333331
7649,CsCd(PO3)3,-2.5467442593165037
7650,YbBe13,-0.11487802642857149
7651,Na3YCl6,-2.3656637186321836
7652,Tl2(ReSe2)3,-0.6770120962026506
7653,Cs2NaScI6,-1.6130067737413796
7654,NiBiAsO5,-1.6447020621875001
7655,Zr(SeCl6)2,-1.3140019776458336
7656,Ba3(AlN2)2,-1.0344159277777782
7657,Li7Y7Zr9S32,-1.9783157385454553
7658,Ag2Hg7(As2I3)2,-0.2896120853070175
7659,Mn7P6(HO6)4,-2.383042290378469
7660,KAlSiO4,-3.1890553115
7661,Lu2NiRu,-0.5249715837499993
7662,Ba2V2CuF12,-3.3281234223529417
7663,CaCu3O4,-1.56071767125
7664,V2Pb4(Se2O7)3,-1.603359543607955
7665,LuNbRu2,-0.43292615750000074
7666,MgTlP(H6O5)2,-1.6574993300666676
7667,KYSiS4,-1.7099480753095244
7668,Bi2Te2S,-0.5553995086250005
7669,RbSbBrF3,-2.512540790416667
7670,Eu2Mo2O7,-2.648326170454545
7671,Cs2LiIr(CN)6,-0.3729212924497114
7672,NaEr(MoO4)2,-2.5131794922126445
7673,Pr(PRh)2,-1.0940172393333327
7674,Sm4S3N2,-2.117473013263888
7675,HfBeRh2,-0.7725537087499994
7676,U(PS3)2,-0.9631254172685186
7677,PuPd,-0.44832690124999885
7678,NaLuS2,-2.0969488332004307
7679,PrAlGe,-0.6830041783333337
7680,Mg3B7ClO13,-2.920120016423611
7681,La(FeAs3)4,-0.40458364852941114
7682,Rb3VF6,-3.0425312897500008
7683,TcPt3,-0.09652899249999969
7684,KMn6P7O24,-2.6056982598399885
7685,Rb3Zn(BO2)5,-2.638003073464913
7686,HfInCu2,-0.16315917000000013
7687,Ca2VClO4,-3.009406187812499
7688,V2Cd5(P2O7)4,-2.4737197880620165
7689,MnCu2SnSe4,-0.5598454115382543
7690,UAl7Cu5,-0.2248511899999998
7691,ZrGeTe,-0.9235142916666668
7692,Na3InF6,-2.955036423965517
7693,Cs4Nb2S11,-1.2523725587411259
7694,ScGaPd,-0.8289366133333331
7695,SrAgBi,-0.6028459777777785
7696,LaTm(Ge2Ir)2,-0.8271302277083334
7697,Mg3Si8Ir3,-0.43041290214285716
7698,YbEuTl2,-0.45764516791666665
7699,ErCu4Ag,-0.24405990944444453
7700,TlCuSe2,-0.47079215200520785
7701,CuP10,-0.043491380075757036
7702,H6C(NO)2,-0.8803943638636362
7703,LuH6(ClO5)3,-1.1020188940000002
7704,Mo2(PO4)3,-2.44556710764706
7705,DyFe5P3,-0.7398971416666661
7706,Rb2Be3Zn2F12,-3.1795506371052635
7707,LiCrP2O7,-2.674738965909091
7708,BeTlAsO4,-2.04176959047619
7709,LaHO,-2.5109565149999997
7710,La2Ga5Cu3,-0.4862237887500001
7711,Ta2Ni3Se8,-0.8817404310576922
7712,H3SO4F,-1.616949355625
7713,Ti2(Co7B2)3,-0.2955204160919548
7714,Ba(CuP2)2,-0.465895666904762
7715,La3Ni2Sn7,-0.6441747683333331
7716,PWO5,-2.461921757261904
7717,K2Gd(BH4)5,-0.434455132922619
7718,AuI2,-0.2055884016666667
7719,HfPd,-0.6887085875000007
7720,Na6MnCl8,-1.995701871816092
7721,K3Nb2Ag3S8,-1.1256165877499997
7722,Eu5As3,-1.0978654193749993
7723,KSc(WO4)2,-2.624759325666666
7724,La2CrO6,-3.024001106666666
7725,Th(FeGe)2,-0.48671034000000046
7726,Li6TeO6,-2.132091083846154
7727,CsNa2Mn3P4ClO14,-2.575576847526437
7728,CsHS,-0.9339788645186781
7729,Nb3ICl6,-1.5733867961250005
7730,CaGa3Pt,-0.6547718684999992
7731,EuMn2O5,-2.378944272295259
7732,CrCl3,-1.5941894937499996
7733,FeH4S2NO8,-1.497139821015625
7734,Sc2IrPd,-1.000161382499999
7735,Na2GaPCO7,-2.3537168111613975
7736,KLiMnO2,-1.8548784083528744
7737,In2Pt2O7,-1.5206784772727266
7738,GdVO3,-3.252683904
7739,ThAlNi,-0.6082310555555558
7740,Sc2NiRu,-0.5799151762500001
7741,YZn12,-0.18582913666666664
7742,K5Zn4Sn5H4S17N,-0.9542808327256947
7743,Ca3RhN3,-0.7429708471428569
7744,Rb4Sb2O5,-1.8277629377272737
7745,Ho2(Ni2B)5,-0.47176530960784313
7746,Li2Nd2Si3,-0.5847646573809523
7747,Ba(HO)2,-2.0581905505
7748,Rb2WO4,-2.2487340671428564
7749,KSnS4,-0.9041549221666667
7750,NaPrO2,-2.9585852653879305
7751,LaNiSnH2,-0.643177704
7752,NbMoO4,-2.535497620000001
7753,U3TaSb5,-0.3753767355555545
7754,KCuCl3,-1.4630872146000002
7755,Ce2(Al3Ir)3,-0.8378937199999997
7756,Hf2SiAs3,-0.716954985833335
7757,TiSi,-0.7333452491666668
7758,Ho3NiGe2,-0.7940810704166671
7759,Hf6Fe16Si7,-0.5402032658620691
7760,Na3SrTa4O12,-3.1456294413160926
7761,ErZnIn,-0.41372541000000024
7762,Zr2NiS4,-1.6281802103571426
7763,Sr(POs)2,-0.643714794666667
7764,CsGaO2,-2.101126966514008
7765,Y(AlCu)6,-0.3614414920512821
7766,LuMn2SiC,-0.5112970081724143
7767,Cs2ScTlF6,-3.35721495291954
7768,CsKTeH6SO10,-1.6588369280778017
7769,NaHfScO4,-3.551220582721675
7770,Pr3W(ClO2)3,-3.1104278126923077
7771,ScBiPd,-0.8218703483333331
7772,LiCa2In,-0.30122983833333317
7773,Y4Ni13C4,-0.3336263322222224
7774,CdMoPO6,-2.2211759025925932
7775,BaWF7,-3.2444178375
7776,Ca3Ge3(RhO6)2,-2.339499759125
7777,K2SnS3,-1.1720306083958338
7778,Rb6Br4O,-1.8059584654545455
7779,Cs2Ti(Si2O5)3,-3.197093301216476
7780,K2TmF5,-3.790645122208334
7781,Ba2YBiO6,-2.815138988166666
7782,Ce3SiI3,-1.2198074253571427
7783,Cd(SbO3)2,-1.846647354444445
7784,Na3AgS2,-1.0335983462619733
7785,YbErPd2,-0.8977561475
7786,ZrB2O5,-3.1929747007291667
7787,Li3Y3(TeO6)2,-2.7677455472500005
7788,CsIn3,-0.1045792236494254
7789,Ba3Fe2Br2O5,-2.4442998266666662
7790,Rb3BiSe3,-1.14301296671875
7791,MoP3Pb2O11,-2.4383755010294115
7792,DyTl(MoO4)2,-2.3791648390277786
7793,PrSiPt,-1.1141122733333333
7794,LaSi2Ru,-0.8042424825000003
7795,TaMn2Al,-0.30342677646551763
7796,TbPt,-1.2666826624999992
7797,Eu3InP3,-0.9703057592857149
7798,Co5SbO8,-1.4958887132142848
7799,Cs3Mn3V4O16,-2.3154277614456236
7800,Cs2SiAs2,-0.4532732211724131
7801,LiCu3F10,-1.8091515813095238
7802,P2PbAu2,-0.13256626133333355
7803,Sr5Cd3,-0.24512952166666646
7804,K3Y3(BO3)4,-3.156595982416667