,formula_pretty,formation_energy_per_atom
24107,Cs(FeP)2,-0.4881149489195408
24108,Sm(NiB)2,-0.5114773066666671
24109,Nd10Se19,-1.9891715699838362
24110,Ac2NiGe,-0.3383847799999993
24111,Sr2EuBiO6,-2.625368449333334
24112,Zn2Hg2H2Se2O11,-1.2248662086677626
24113,TmSbO4,-2.8891651540277774
24114,CsNiCl3,-1.5777615845862065
24115,W18O49,-2.153272062313434
24116,Ba5Cd2Sb5F,-1.3212210998076919
24117,Mn4SiMoC,-0.22279197560344852
24118,LiCa2Si3,-0.42126528222222187
24119,V2Ni3O8,-1.871799676153845
24120,Ca4Bi2O,-1.6009697692857148
24121,PH4Br,-0.3710848651388889
24122,PmMg3,-0.11877022187499975
24123,Ba2NaUO6,-3.0786264211551724
24124,Y6GaCo2,-0.28069532250000073
24125,ScCo3B2,-0.5463210047222221
24126,Ba2TbSbO6,-3.0843530030000004
24127,Hg3(TeI)2,-0.47748461928571445
24128,NaNiH4SO6F,-1.731834977298337
24129,KGd(NbCl3)6,-1.9085749997307695
24130,YMgCd2,-0.3187647541666667
24131,Pr2EuSe4,-2.211424644196429
24132,CsP2H5O8,-2.0546741905998562
24133,Rb3Mn16O32,-1.9222435586156186
24134,FeSnO3,-1.858814814000001
24135,Eu2NiRuO6,-2.3263635230000004
24136,Sm(NiSb)2,-0.695745273
24137,KGa(PO3)4,-2.6173639721574062
24138,Sr5As3O12F,-2.853308974563492
24139,Li2SeO4,-1.851011195096726
24140,TbNiAs,-1.0532760649999997
24141,TlReO4,-1.99979153625
24142,TmBi,-0.7730985333333331
24143,Na5B(SO4)4,-2.1785062915163573
24144,Fe3PdN,-0.19772158699999948
24145,Li2VSiO5,-2.765965599074074
24146,NdNiO3,-2.425267555500001
24147,CoS2,-0.6925998454166672
24148,Yb2(Al3Ir)3,-0.7576087960714284
24149,Sm3OsO7,-3.1347793359090903
24150,Cs2TcI6,-1.043602588429119
24151,GaCuI4,-0.6676176529166664
24152,LiMnVO4,-2.371862765180625
24153,Zr7P4,-1.1678688753030313
24154,Dy2RuRh,-0.6232649662499998
24155,GePd,-0.4611656774999995
24156,Be2BH3O5,-2.3307361771969695
24157,LaIn2Rh,-0.6513701662500004
24158,Pr(BC)2,-0.39484054866666585
24159,Y3Ga9Cu2,-0.4940465176785714
24160,Sm4Au2O9,-2.7913073345000017
24161,NdNiRu,-0.2538943866666668
24162,Ga2(Ni7B2)3,-0.30381456379310307
24163,KAgCl3,-1.3966560909333332
24164,Ca2Sn5Pt3,-0.7249544302499998
24165,Ir3Ru,-0.04650265875000059
24166,ErNiO3,-2.51755786
24167,SbTeRu,-0.5274241016666666
24168,Li3P7,-0.35957199533333367
24169,RbLaO2,-2.960893438125
24170,Sr2YbSbO6,-2.8145374473333336
24171,RbLiB4O7,-2.7969359768269224
24172,Rb3PS4,-1.245960622604167
24173,Ag2CO3,-1.0936600005555561
24174,HoRh3C,-0.5169857579999999
24175,CaGa2Ni,-0.5055234824999997
24176,U3Fe2Si7,-0.40511841583333325
24177,Nb2PS10,-0.9658571101602564
24178,ZrAu2,-0.5750203633333335
24179,SmTe,-1.5928130675000007
24180,CsVSO6,-2.2155686538673383
24181,Rb3(Cu4S3)2,-0.6586985300735297
24182,TmCdHg2,-0.33212780166666644
24183,TaPCl10,-1.5190838406944451
24184,Ce2SiGe,-0.6760588699999994
24185,NpSnIr,-0.4108965034722224
24186,Dy(Al5Re)2,-0.35499685692307775
24187,K2LiVS4,-1.411776143979167
24188,Ba3GdIrRuO9,-2.559447855
24189,Zr3Tl2(CuSe4)2,-1.209068701694444
24190,Nb2Tl5S4Cl9,-1.3922563779583328
24191,LiCaPb,-0.4745830544444441
24192,MgNi2Sn,-0.27605854875
24193,Sr5P3BrO12,-3.295318180992064
24194,Pr7C3Br10,-1.7465435715000006
24195,AlV9Au2,-0.08637006041666713
24196,Ho(Al5Ru)2,-0.5144672996153841
24197,UH4(BrO2)2,-1.9047634272727272
24198,MgCd,-0.0989307299999999
24199,TiNb(PO4)3,-2.964850366372549
24200,NdAl,-0.3926061599999997
24201,PtS2,-0.6847965887499997
24202,Sn(S4I)4,-0.5451848085714285
24203,CsSrBr3,-2.3506054154195404
24204,RuSe2,-0.7395663657291666
24205,PuSi,-0.43634378500000004
24206,PH5NO3F,-1.6015800529166662
24207,CsB5(H2O3)4,-2.1278073418755525
24208,Na3NbO4,-2.511851621519397
24209,CdHgO2,-1.03558483125
24210,Cs3Nb6SBr17,-1.5218955127562257
24211,UI3,-1.1418763500000004
24212,Rb2UBr5,-1.9168456537500003
24213,Y(Al5Ru)2,-0.5193089908974358
24214,BaZnAgF7,-2.5633568359166667
24215,Ca5Ge3,-0.6279851918749997
24216,Sc2FeSi2,-0.7465828129999992
24217,KTmP2O7,-3.1581043778484843
24218,La3Ga5SnO14,-2.8321901120652173
24219,Y2MnNiO6,-2.8314696191264375
24220,YbH3Pd,-0.5777218329999997
24221,KLa5(CCl5)2,-2.3259327480833334
24222,VAg3O4,-1.245943563750001
24223,Ta3S2,-0.9585924152499998
24224,Ti4CoS8,-1.521779601025641
24225,LaGa6,-0.3653124021428568
24226,SrP,-1.0470363891666672
24227,KCeSe4,-1.4576573145624991
24228,Rb2TaAgS4,-1.3027567617708335
24229,Cs4PbCl6,-2.10089165515674
24230,NaHSeO4,-1.45875501984221
24231,Cs2CaCl4,-2.5383389508374385
24232,Re2Cl7O3,-1.4224707829166665
24233,Ga2PbSe4,-0.8636855806250006
24234,Rb2U(MoO5)2,-2.550359379666666
24235,SrSmB12,-0.460925232261904
24236,BaGdCuSe3,-1.8230167878385408
24237,YbAl2Cu,-0.3337642841666663
24238,NiPt3,-0.06359501749999996
24239,PdPt,-0.044905089999999426
24240,Gd2AgRu,-0.3083964579166647
24241,Cs2CoH12(SO7)2,-1.6042483394229694
24242,ErSCl,-2.5549975877083333
24243,SrMn2V2O8,-2.530912622502211
24244,HoGe,-0.8620077649999995
24245,Dy2FeCo3,-0.19430047416666696
24246,Ho(BC)2,-0.44431758266666466
24247,GdNiBi,-0.6714073699999995
24248,UBr5,-1.6948233987500003
24249,SrMgB2O5,-3.1219483508333337
24250,KY3F10,-4.265578403785715
24251,SrAl2Au3,-0.642940821111111
24252,Cs3In2Cl9,-1.94036010955665
24253,U2Ga10CoNi,-0.32751091642857133
24254,TbSnAu,-0.8270066933333334
24255,GdAl2Ni,-0.6208696287499995
24256,Mg2Ti7O15,-3.4173906855555565
24257,LiSm6B3O14,-3.5348295849305553
24258,CsNbV2O8,-2.607285077119253
24259,Hf(MnGe)6,-0.2769399921220165
24260,Rb2GeB4O9,-2.655388389947917
24261,ZrMnRh2,-0.5698349494827575
24262,LuSc(BO3)2,-3.5035982273333337
24263,GdB4,-0.5975773188333321
24264,SrGdCuS3,-1.9407340093402776
24265,CePd7,-0.4763125818749998
24266,Fe3B7ClO13,-2.5237631076736116
24267,TbGe3Rh5,-0.6960932372222219
24268,ZrSnPt,-1.0179595483333337
24269,Na2Be(SiO3)2,-2.9652259419488
24270,BaUS3,-2.0225784613750006
24271,Dy2Ti3Si4,-0.7768737763888893
24272,PrSmB12,-0.47083074428571337
24273,K7LiSi8,-0.06836786589583355
24274,Te2P2O9,-2.1212357401282063
24275,UPb(SeO4)2,-2.1349625733072912
24276,Ca3Ga3(SnO6)2,-2.5614142438749994
24277,Rb2Ti4H3F21,-3.303203735694445
24278,Ba2InRuO6,-2.2838082261666672
24279,Ba2I2O,-2.4768126720000003
24280,TbCoC,-0.3005691816666669
24281,Ce3CuGeSe7,-1.5507736622005208
24282,VSiTc2,-0.5183514724999991
24283,NpI2O9,-1.4657153582291678
24284,NaAlF4,-3.614468128591954
24285,MgH2Cl2O,-1.79656890625
24286,ZrHg3(SeBr3)2,-1.138780726223958
24287,LiCa4(BN2)3,-1.3176390464880956
24288,TiPRu,-1.0170403338888891
24289,Mn(InTe2)2,-0.5162384382758616
24290,Pm2CuOs,-0.11174299750000039
24291,Nd2US5,-2.148709808203124
24292,Tl2WCl6,-1.3390551274074072
24293,K2LiBiCl6,-1.8990713719333336
24294,Er2C(NO)2,-2.5129063785714285
24295,Co2Si(P2O7)2,-2.5179752939682536
24296,K4P2O7,-2.611931133358974
24297,La7Os4C9,-0.28110017475000004
24298,CeZn2,-0.2958411383333335
24299,NaSr3NbO6,-3.06195203468652
24300,AgBr,-0.6343133270833334
24301,ThFe2SiC,-0.48447482899999983
24302,Cr8Cu3NiS16,-0.914825481071429
24303,YbP5,-0.3908038894444446
24304,Ba2PaInO6,-3.2663505140000013
24305,TbZnNi,-0.4561526733333328
24306,CeRu3C,-0.2420686900000007
24307,MnZnPd2,-0.3980063969827592
24308,LiGaGeO4,-2.2707922432142866
24309,K4Zr3Te17,-0.9784631912291667
24310,NaPS3,-0.8707799103520116
24311,Ta11(SiSe4)2,-0.8564797908928564
24312,YbSiAu,-0.7496323099999996
24313,ErZnRh2,-0.6963999725000001
24314,Sr2NdSbO6,-3.0006357345833328
24315,Ho(MnAl2)4,-0.3424936539787801
24316,NaHoSe2,-1.9347503353098054
24317,RbV5Se8,-1.0513920383035713
24318,V2Zn2O7,-2.1705094486363636
24319,CaTiSiO5,-3.4762021516666675
24320,InBrO,-1.6673707608333335
24321,LaEuCd2,-0.33456807000000044
24322,K2MnV4O12,-2.3953558365226857
24323,Pu2Re3Si5,-0.42289064449999786
24324,PaGa3,-0.3784254156250002
24325,Ca2Sn,-0.6472885424999996
24326,HoTiClO3,-3.541738045555555
24327,Sr(AsRu)2,-0.6780031473333331
24328,Li6Nd(BO3)3,-2.8121908702631573
24329,Gd(PdO2)2,-1.969251390714286
24330,CsNb4Cl11,-1.7852124739331905
24331,Na3UO4,-2.738556766206896
24332,AlH6C2SeCl3,-0.7581711609495192
24333,Na2CaTi2(GeO4)3,-2.7242457159885047
24334,EuZrO3,-3.6394045745
24335,Rb2ScTlCl6,-2.209568519333333
24336,PrMn2O5,-2.597603376670259
24337,NdBi2ClO4,-2.4068144975
24338,Sm2Zr2O7,-3.855694280909091
24339,ErBi2BrO4,-2.4237198859375013
24340,Ca3Ga5,-0.5152204765624995
24341,Y2MgSi2,-0.7042973316666667
24342,TaOs3,-0.14220124374999976
24343,Rb2CuF6,-2.277475882222222
24344,P4Se3I2,-0.32348292504050846
24345,Zr(TlS)4,-1.0081374344259257
24346,La5(SiN3)3,-1.555167779558824
24347,In2(Ni7P2)3,-0.40949568448275814
24348,Ba8Sb4H2O,-1.2746879216666664
24349,K4Sn23,-0.12051181525925904
24350,PmSbAu2,-0.6824245543750003
24351,K3AsSe4,-1.0510985982343746
24352,PuSe,-1.7964505611718753
24353,EuSi3Ni,-0.5245770489999998
24354,PmYTl2,-0.3837581902083329
24355,CaLaZn2,-0.31570318124999996
24356,Mn3P3PbO12,-2.487712465725952
24357,CsNbS2O9,-2.2775864383985427
24358,Ce2In8Co,-0.3045550304545456
24359,InP3Pb2O11,-2.449807295441177
24360,K2PtC2,-0.09148784319999947
24361,Nb5Sb4,-0.39255821444444433
24362,LuGaPt,-1.1019688283333327
24363,CsTa2P5O18,-2.8805199405614514
24364,LiSmGe,-0.6998789122222225
24365,Yb2Zn17,-0.216007285263158
24366,MgO,-3.0533666124999996
24367,KAgO2,-1.0288566724166666
24368,LiNbO3,-2.899517651666666
24369,Y2GeRh3,-0.8767716813888894
24370,K3NbHOF7,-3.0461349366538473
24371,Ca2P3Pb3ClO12,-2.7103770688095246
24372,La3IrO7,-3.077486685454545
24373,Sr3GaN3,-0.7891176024999993
24374,Tl2GeSe3,-0.6139734689496527
24375,K(RuO2)4,-1.4813751663846157
24376,AcBr3,-2.494529395
24377,BaSr2Mg(SiO4)2,-3.37927034952381
24378,Al2RuRh,-0.9261468512499995
24379,Tb3Ga2,-0.53228824025
24380,BePH4NO4,-1.8529921118939385
24381,CaReN3,-0.736900331999999
24382,LiEuAs,-1.0332368927777782
24383,TiGa3,-0.3735623614583332
24384,Y6MnBi2,-0.43383241754789265
24385,Na2PdO3,-1.3638319757255744
24386,Ti2N,-1.4377696338888886
24387,NdAl4Co,-0.5129815483333342
24388,Sm6H44N8O51,-1.5479755126605512
24389,ScPaOs2,-0.342177543750001
24390,Er(ZnP)3,-0.6010039050000004
24391,EuCuGe,-0.4743981338888893
24392,Rb2NaTbF6,-3.581421766655173
24393,MnF4,-2.3984317920862077
24394,La6Ti3Se9O5,-2.687457624177989
24395,Sr2Ge(S2O7)4,-2.02747004508547
24396,NbB,-0.7693451645833331
24397,RbTl3O5,-1.204258480555556
24398,YNiB4,-0.5718582209722219
24399,Na2CO3,-2.079692264545019
24400,Er3CrB7,-0.6365744703787883
24401,Na2NiH4(SeO5)2,-1.4433561240942607
24402,Sn(PbO2)2,-1.779286491428571
24403,CaHo(FeO3)2,-2.552275008000001
24404,Na2Ca3Si3O10,-3.2198192076724137
24405,PPbS3,-0.7265524800416671
24406,Gd2Zn17,-0.25086788631578977
24407,Li3Sc2(PO4)3,-3.1270098016250003
24408,UCl2O,-2.7948329531250002
24409,La3Bi4Au3,-0.8217898689999998
24410,EuCrTeO6,-2.319431342777778
24411,CsCeHgSe3,-1.4529300908270468
24412,VZnSe2O7,-1.6986153424715915
24413,Li2CaSn,-0.5072434679166662
24414,YAgO2,-2.6137794508333334
24415,HoGaNi,-0.648614859166667
24416,Sr3(AlSi)2,-0.37984326857142897
24417,H4NF,-1.0668698387500004
24418,Ag2F5,-1.3922539497619049
24419,Rb3(FeS2)2,-1.037093540277778
24420,CsSb2PO8,-2.2246121309386973
24421,Na2AlSi3HO9,-2.937790651443967
24422,ScGaPt,-1.0515044474999993
24423,Ti2Co3Sn2,-0.405903765952381
24424,Sr2SbAu,-0.9792937433333333
24425,Sc6Si11Ni18,-0.7422153308571426
24426,Hf2Si,-0.7200595366666676
24427,HoTlPd,-0.6557501977777775
24428,Rb4Al2S5,-1.4988995307386366
24429,Cs2V3O8,-2.4544574396816987
24430,Ca3Ge4Au7,-0.5043917549999998
24431,Ba5Na2Ru3O14,-2.282007233045977
24432,NiSb,-0.3666971850000005
24433,In4As5(BrO4)3,-1.705064056354167
24434,LiVPO4,-2.6426929598809514
24435,Tm4Zn5Ge6,-0.5221419817777776
24436,LiAl2H6ClO6,-2.081724793645834
24437,TaCoB,-0.6173531847222212
24438,Er(CoSi)2,-0.80636972
24439,TiCrP,-0.9514048344444446
24440,Hf9CoRe4,-0.34773005749999947
24441,KMgIn(MoO4)3,-2.202730594055556
24442,Li2SO4,-2.3114046031845237
24443,HfP2,-0.9245739022222222
24444,RbGd(WO4)2,-2.6549364881250006
24445,Pr2Zn5Pb,-0.387269951875
24446,Cs3LaI6,-1.7990902608793107
24447,NaSc(WO4)2,-2.60122083387931
24448,Ba2FeMoO6,-2.501113414
24449,TmSiOs2C,-0.4976197493333331
24450,CuPt,-0.15657242999999976
24451,MgH8(ClO2)2,-1.5001506311666675
24452,PH2F3,-1.8493529943055556
24453,BiClO,-1.6957470950000004
24454,K2LuF5,-3.7899904998125002
24455,GdPd3,-0.8550365149999992
24456,Na2SiF6,-3.3756752190485315
24457,Li2Ni3(P2O7)2,-2.381500287608696
24458,Ag2O,-0.3225549744444442
24459,Cs4Zr3Se14,-1.3682160904541263
24460,PrTaTiO6,-3.618862868703704
24461,AlRe,-0.31577989500000037
24462,PrS,-2.2671519740625
24463,NiSO4,-1.7115202305208335
24464,Eu2H16S3O20,-1.7280304729115858
24465,TmCuPb,-0.3568846572222224
24466,GdCuS2,-1.6448689446875004
24467,La4B14O27,-3.159417003185185
24468,Ba17Ho16Zn8Pt4O57,-2.9967118455392154
24469,CrAgSnSe4,-0.662184147291666
24470,K9Sm3Si12(O16F)2,-3.189668341672414
24471,CsEu2I5,-1.8439265519288797
24472,Cs(TeO3)2,-1.6468087675478924
24473,Sm2CoTe2(SO7)2,-2.331699243392857
24474,CsGaBr4,-1.614081493821839
24475,Rb5Ti6AgSe27,-1.1581624503191772
24476,KTl2GaF6,-2.6461218102166666
24477,Ga3(Ni10B3)2,-0.3305592257758625
24478,SmAlPd,-0.8379110408333332
24479,Ti3B4,-0.9328539909523812
24480,DyFe2SiC,-0.510987704
24481,RuF3,-1.8904211706249994
24482,Zr3N4,-1.680270481428573
24483,TiPbO3,-2.7305897856666674
24484,P2PdPbO7,-2.1900109349242416
24485,NaLi3SiO4,-2.6464144171168584
24486,Al2SnCl6O,-2.08124095825
24487,Cr2Te4O11,-1.7520300435294118
24488,NaFe(TeO3)2,-1.6745011805301728
24489,Hf(CuP)2,-0.6150058953333343
24490,Er6CoBr10,-1.8627646629411767
24491,KBaLaWO6,-2.912234573550001
24492,Eu2Mn2O7,-2.499057361442006
24493,Pu2O3,-3.493090683000001
24494,Ba2B2O5,-3.1415683614814816
24495,AcMnO3,-2.9736300230862063
24496,Al2FeNi,-0.5236198850000005
24497,Ti2ZnTc,-0.34634507666666714
24498,Ho2(B2Rh3)3,-0.6337061444117642
24499,Cs2IrCl6,-1.6292249384291186
24500,PrCo9Si4,-0.453957533214285
24501,Cs2SeClF6,-2.1946872243205817
24502,Dy4Ga12Pt,-0.6290228794117643
24503,Na4FeO4,-1.6341992201341
24504,La3Si2S8I,-1.8585471307142858
24505,V3Zn2N,-0.6088522129166662
24506,La3AgGeS7,-1.8105711094618056
24507,Be3Tl2Ni2F12,-2.8618708908771935
24508,Ba3InRu2O9,-2.262421059666667
24509,LaCoC2,-0.28546755125
24510,ThGaIr,-0.9294405491666677
24511,Mg3BeAl8O16,-3.3720079617857146
24512,CsRe3(O3F5)2,-2.5172418056465515
24513,YSnIr,-0.8310086197222226
24514,AcCdAu2,-0.6242288006250001
24515,Cs4Pr6OsI13,-1.5415841613218395
24516,Ba2YSbO6,-3.080200158666667
24517,Sc3C4,-0.408804635714286
24518,La3CuSnSe7,-1.6900104180338549
24519,Tb7MnBr12,-1.8452377408965517
24520,Pr2InGe2,-0.7340502749999992
24521,Ta4Ni2N,-0.6730578810714292
24522,NdSeClO3,-2.4338296055989574
24523,Yb5Pd2,-0.6088794049999997
24524,Re2MoSe4,-0.7352034741964276
24525,BaS,-2.3300412015624996
24526,BaVAsO6,-2.456415827777778
24527,Na2ZnCl4,-1.8988357004433496
24528,RbY(TeO3)2,-2.306315607416667
24529,SmS2,-2.07169717875
24530,TaNiTe5,-0.5971361871428564
24531,Na2UTeO7,-2.520947449373041
24532,LuGe2,-0.5773376683333336
24533,Eu(ReO4)2,-2.513855450454545
24534,Pr(SiOs)2,-0.6838203990000011
24535,Zr2Al3Zn,-0.5171000500000004
24536,Zn2CuRh,-0.2764295999999997
24537,La5TlTe8,-1.719080369880953
24538,ThAu,-0.6152714999999995
24539,RbMoP2O7,-2.599102805833333
24540,SmCuSi,-0.6179454833333325
24541,Ta2Te2O9,-2.498477356153847
24542,Nb5SiB2,-0.6428829066666673
24543,CrCu(PS3)2,-0.6561385227916666
24544,La15Cd2Rh5,-0.4929259663636371
24545,NiMoP,-0.558123895555555
24546,Mg2Be3P3H13O19,-2.1667889824999995
24547,ErNiBi,-0.6613949633333327
24548,Sr2V3Bi3O14,-2.4331298108333317
24549,PuAl2,-0.31267452166666726
24550,U2SbN2,-1.3872550919999995
24551,GeO2,-2.0770728672222223
24552,GdTmIr2,-0.8333568016666675
24553,HfScCo2,-0.41050691875000034
24554,BaMo2(PO6)2,-2.5107407868627445
24555,La2CoNiO6,-2.5752686075
24556,Rb2Se3,-1.08018313040625
24557,ThInAg2,-0.22508613333333294
24558,Er2CrSbO7,-3.059424667727272
24559,Li2NdTl,-0.2611015299999999
24560,GdCuSi,-0.6394432499999994
24561,Mg6CdIn,-0.08276383249999997
24562,Eu(In2Au)2,-0.4136833089285718
24563,NiH10(SeO5)2,-1.2693329165081522
24564,Tl2Rh3S2,-0.45503508898809536
24565,KLiS,-1.3891609581527777
24566,CoBiO3,-1.4639324979999997
24567,GdZnIn,-0.44646704499999973
24568,CsBeF3,-3.408024459586207
24569,Tm2Mn3Si5,-0.5932406022126436
24570,YGa5Co,-0.4706628713095244
24571,CeP,-1.5006152941666668
24572,SmMgAu2,-0.7535764887499998
24573,Cs2UHg2Se5,-1.098118748758082
24574,Rb2S,-1.1610664860416666
24575,Sm(BRu)2,-0.5263438706666677
24576,MnAl24Cr,-0.08413894761273227
24577,Gd(Sn3Ru2)2,-0.3292943899999999
24578,In3Te3I,-0.6117166785714286
24579,LiAlB14,-0.1676688760416667
24580,PrSiRu,-0.769045988333333
24581,AlClO,-2.785189938333333
24582,KIn(TeO3)2,-1.7688234913000003
24583,PmAg2Sn,-0.3968573139583329
24584,La3CuGeS7,-1.850960649739583
24585,Cs2KCuF6,-2.5769014233862064
24586,Sn4Rh,-0.2702863995000001
24587,La11(MnC6)3,-0.275439530587283
24588,Na2SnSe3,-1.0209852773141168
24589,Nb3B2Ru5,-0.4478948618333334
24590,La3PI3,-1.6610191979761904
24591,Sm2Mo2O7,-2.8820783218181805
24592,LuCdNi4,-0.37479511000000026
24593,Ac2MgPb,-0.27500883124999964
24594,U3Sn7,-0.12654950050000052
24595,Er2TlCu3S5,-1.3245067330871214
24596,Ba3Nb2O8,-3.2599865715384624
24597,ScFeGe2,-0.535352011666666
24598,SmInIr,-0.6681346638888885
24599,PrInNi,-0.43795356277777764
24600,Eu(SiPd)2,-0.7886703609999998
24601,Ti4Si7Ni4,-0.6777965815555557
24602,Ba3(GaS3)2,-1.7929513530681818
24603,Yb5Au4,-0.9096255044444447
24604,Gd3Pt,-0.6773480025000005
24605,Tm4CdPd,-0.4660603011111106
24606,KNbF6,-3.4187415053749994
24607,SmNiBi,-0.6679815983333329
24608,Pr4AsBrO8,-3.2708327853571433
24609,K4MoS3O14,-2.1498703206306815
24610,Te(HO)6,-1.3088604415384621
24611,RbGaS2,-1.2963705862500001
24612,Sn(SeO3)2,-1.5128864124652779
24613,Ti4Co4Ge7,-0.5117227062222223
24614,Nb2Se,-0.6698707199479171
24615,SrNb2O6,-3.2380454251851853
24616,Cs2BaP2O7,-2.8880806112523945
24617,V2Se3O11,-1.6658332396582027
24618,LaYbTl2,-0.45475693791666627
24619,LaTeAs,-1.4454034799999995
24620,Cs2RbCuF6,-2.558745309836207
24621,BaPb3,-0.3725758225
24622,RbPHO3F,-2.4933725947619054
24623,NaFeP2(O3F)2,-2.6112597819348657
24624,Ce2NiB10,-0.5774413343589734
24625,CsYO2,-2.948288286149425
24626,Sm2Ge2Rh,-0.8990798490000003
24627,Ba3SiO,-1.3167959760000003
24628,SmDyIn2,-0.47095610875000027
24629,CaAgSb,-0.7607002913888893
24630,Ca5As3HO13,-2.6667549781818183
24631,CsLiMoO4,-2.2621899658949096
24632,CeBRh3,-0.7609627028333321
24633,Ba3Fe2WO9,-2.522753784666667
24634,Ag3PO4,-1.4135166904166665
24635,Sr(InP)2,-0.587570783666667
24636,UCl6,-2.024577714761905
24637,Rb2Cr2O7,-1.9339813152272731
24638,TaZn2N3,-0.6838060366666667
24639,TaCdBF10,-3.2266795743589753
24640,Sc(FeSi)2,-0.6265037729999989
24641,Tm3InN,-1.0908164889999994
24642,Co21(B3W)2,-0.22069400379310353
24643,SmMgPt,-0.9185321772222221
24644,Cu3P4Se4Br3,-0.4644235360267863
24645,Ba(BeN)2,-1.108668195
24646,Na3LiY3P3CO15F2,-3.134161743856733
24647,K2CrSO7,-2.037561579920455
24648,K2TeO3,-1.8679604585
24649,HoTe2ClO5,-2.248374806666666
24650,VS2,-1.2016181354166673
24651,GdBRh3,-0.7559659618333328
24652,Ag7PSe6,-0.3077555320758926
24653,CaP2PdO7,-2.58369144560606
24654,MgTlF3,-3.0852172061666665
24655,Ca3Fe2O7,-2.4104254045833327
24656,Bi2Se4Cl7,-0.9583435062980772
24657,TiSb(PO4)3,-2.6788252246078437
24658,KCu4AsS4,-0.5743935665499997
24659,SbCl(OF3)2,-1.8977525185000002
24660,Rb4TiO4,-2.3201395323148146
24661,Er7IrI12,-1.4877247580000001
24662,Na5Nd4Ge4O16F,-2.7937618308419543
24663,Mn3Si(O2F)2,-2.721663360129311
24664,AgPdO2,-0.6613315729166658
24665,HoCuP2,-0.8708942929166676
24666,NaHoP2O7,-3.115855457565308
24667,Sr2NbInO6,-2.983586746833334
24668,Nd3Zn22,-0.2841795320000003
24669,Mg2H6Ru,-0.44670500277777747
24670,Li2IrO3,-1.7343491772777782
24671,UGa5Ni,-0.32413746392857135
24672,Ba(AuF6)2,-1.7893331728333337
24673,Pr3Si6N11,-1.4786975714999997
24674,FeTe3BrO7,-1.4766217143750004
24675,Eu5P3O12F,-3.345575787976191
24676,Tb3Cu3Sb4,-0.8107174094999998
24677,CaP,-1.0904777350000003
24678,Tb3Ga8Ag3,-0.4663688114285713
24679,GdH12(ClO2)3,-1.5543724379545454
24680,La(WO3)11,-2.2867814911111104
24681,NaH2N,-0.44465465476293087
24682,Sr(HO)2,-2.116176062333333
24683,Na3Tm(SiO3)3,-3.127344794262304
24684,BaGa2SiS6,-1.3313394113750008
24685,BaCd,-0.3277740950000001
24686,YbMgCu4,-0.24455944666666637
24687,Ni3S4,-0.659063004642857