,formula_pretty,formation_energy_per_atom
15994,SbRhSe,-0.773913591614584
15995,Na20Zn8Sn11,-0.1749931277188327
15996,ReBiO4,-1.9062141624999995
15997,Ce5Ge4,-0.7085073472222219
15998,Nb2Se17Cl12,-0.7523483712852818
15999,Ba9U4(Ag5S12)2,-1.526318308652482
16000,KZnP,-0.45802087377777784
16001,Rb7(FeO4)2,-1.5288172338235293
16002,Li5TaO5,-2.654222177424243
16003,CrGaRu2,-0.19420935937499983
16004,BaSO4,-2.7072712488541666
16005,ScH2,-0.7840734883333335
16006,KGdCO3F2,-3.1158045578749993
16007,K3WF6,-2.8528907304
16008,K2Ge(IO3)6,-1.1593254907777786
16009,ScAu2,-0.8175798283333329
16010,Eu(AlGa)2,-0.41827933
16011,TePbO3,-1.5508917625
16012,SmYHg2,-0.48651355541666685
16013,RbCr5Te8,-0.5625329076785712
16014,Cs2Sn3(SbS5)2,-0.8602391130654158
16015,SrB2F8,-3.550377820113636
16016,Ge5P6O25,-2.417328332500001
16017,Pr4Sb3,-1.1475538392857143
16018,UF6,-3.6884435239285716
16019,Na2CuPCO7,-2.039094640119732
16020,La5Ti5O17,-3.762626718209877
16021,K2Ag4S3,-0.6473017902268516
16022,La5Sn4,-0.7813242691666673
16023,La5Pb4,-0.620068427777777
16024,H8S(NO2)2,-1.0882604640416664
16025,TiAlRh2,-0.9830098508333327
16026,YbGaRh2,-0.7296737593750002
16027,Sn3BF9,-2.7886301874358983
16028,InNi3N,-0.15516543499999996
16029,SrFe2(SeO3)4,-1.6602072145285092
16030,Mn2S3,-0.8441668370474147
16031,Ag4PIO4,-1.2321162987500003
16032,LiGdGe,-0.711404196111112
16033,Cu2P2O7,-2.0290066219696956
16034,Sr2SnS5,-1.538433128932292
16035,Zn(GaNi)3,-0.3732787335714285
16036,CdH6C(BrN)3,-0.6815839808928571
16037,Ga2Mo(SeO5)2,-1.7552905844791666
16038,Nb3Au2,-0.14748805600000026
16039,Eu4Br6O,-2.5662792545454547
16040,Na3V3Cr2O12,-2.3911517036077576
16041,BH6CN3F4,-1.435051251611111
16042,K2(ReSe2)3,-0.9277366470511358
16043,Na2Zr12B2I5Cl23,-2.0027563849190186
16044,Na3Li3Al2F12,-3.4659091559827586
16045,Rb2UBr6,-1.9381944344444446
16046,MgAg,-0.25070454333333325
16047,U2C3,-0.12474700449999858
16048,CsCeSiS4,-1.701217987561576
16049,NaCr3O8,-1.9053748642959765
16050,Ba(AlSe2)2,-1.5790876313392854
16051,CdSe2O5,-1.330733673710938
16052,Ag4TeSO4,-0.9712897294791667
16053,LuGaPd,-0.8686566816666659
16054,Eu3(GaNi)4,-0.47367214590909157
16055,LaSb2,-1.0040962933333333
16056,K2WSe4,-1.0846145189821423
16057,Li4Ga3Si3ClO12,-2.7352963869927542
16058,TiSnPt,-0.8256581361111112
16059,Zn2GaP3H8(NO6)2,-1.8313085373214288
16060,CaTiMo(PO4)3,-2.913659863518518
16061,BP,-0.40748731624999923
16062,Sr5Re3ClO15,-2.7752034127430556
16063,Mn2PClO4,-2.402874864274424
16064,Li2FeP2O7,-2.5802085091319444
16065,RuClF8,-1.6268622524999998
16066,SbI3,-0.6434522900000004
16067,LiEr(WO4)2,-2.669882756527778
16068,TmGa2Ni3,-0.5533671280555552
16069,Rb2LiTmCl6,-2.4675912995
16070,Na2CeF6,-3.6150663336781608
16071,K4Zn2Sn21,-0.15070769544444443
16072,RbAlCuF6,-3.0410500366666664
16073,PrSiPd2,-0.8972911443749991
16074,Tb3Ga8Au3,-0.5569784
16075,Rb2Si2Se5,-1.096467991579861
16076,LiAs3H2O9,-1.6630063182222234
16077,LiIrF6,-2.2197794097916663
16078,Tl9BiSe6,-0.5537691402539062
16079,Tb4Ga12Ag,-0.5194837345098039
16080,Er2Al4NiGe2,-0.6190124066666675
16081,La2(InSn)3,-0.534181603125
16082,NaCa4TaTi4(SiO5)5,-3.409864929872127
16083,MgSnF6,-3.23049783
16084,LiPmZn2,-0.268434762708333
16085,ScCo5P3,-0.8531239583333338
16086,Sn5(PO5)2,-2.145940871862745
16087,La5Ti2AgS5O7,-3.0622644526979172
16088,Gd3AlVS7,-1.9800757243229168
16089,Er10W2O21,-3.664397607045456
16090,HfGaNi,-0.6399771391666668
16091,Sr(CdAs)2,-0.6248035473333335
16092,Ga3Te3I,-0.6462362325
16093,Na3Y(BO3)2,-2.8352944762212644
16094,HPbBrO,-1.3710908931249999
16095,RbNbN2,-0.9214940954687503
16096,Tl2WO4,-1.7012336345238086
16097,CsSr(BH4)3,-0.508715210123394
16098,TaAsPCl13,-1.4380651539583331
16099,DyBi2BrO4,-2.4171954046875
16100,Ba2Ru7O18,-1.7513656161111115
16101,Eu(MgP)2,-0.9699681223333336
16102,Bi10(MoO8)3,-1.8128976021621614
16103,HoPS,-1.7237742125694442
16104,Mg149Bi,-0.027453753599999877
16105,CeGeIr,-0.8868443891666663
16106,Ho4CdNi,-0.30086673791666624
16107,TbAs,-1.5311656874999997
16108,K3GeTe3,-0.9840730491428568
16109,KCa10(PO4)7,-3.2942218176376814
16110,KAg2AsO4,-1.3532683001666665
16111,Ba2TmReO6,-3.0727057881666675
16112,Cr2Se3,-0.8103917534062489
16113,KMgBO3,-2.787121732444445
16114,Cr5S8,-0.9793033288461529
16115,NaC2N3,-0.338094646508621
16116,Mo(RhO3)2,-1.5038101161111106
16117,CoO2,-1.0807989683333343
16118,Lu2MnSe4,-1.7094214831865762
16119,Ho2Sn2O7,-3.0302023095454547
16120,Ba3InAs3,-0.9785419728571431
16121,NaLa(SO4)2,-2.5433782844001436
16122,Cu2HgGeSe4,-0.4789387586718745
16123,YMgZn,-0.29456308111111124
16124,Co2PClO4,-1.9655743119791662
16125,PCl3,-1.1614409508333337
16126,NaTi2(PO4)3,-3.0215489154565773
16127,Co(AsO3)2,-1.6258190033333335
16128,HfMnSi,-0.6658372109770099
16129,TaTlCl6,-1.7460116910416659
16130,V4Co2N,-0.5757244528571428
16131,Nd2InAu2,-0.772346847
16132,Eu3TaO7,-3.311713269545454
16133,ScB4Ir3,-0.5856202120833327
16134,InPH5NO5,-1.612472511410257
16135,CsFeBr4,-1.3683297125718392
16136,AgCl,-0.7338783983333332
16137,Pr2VFeO6,-2.9902528535000004
16138,NdSnRh,-0.8506399294444447
16139,Sc3Si3Ru,-0.8522016521428577
16140,Ho2Si4CN6,-1.3805086026923066
16141,Mg3WN4,-0.8446244374999997
16142,RbGeSbO5,-2.0861234009375007
16143,Tb2MnGa6,-0.5280193647701145
16144,CuTeBr,-0.61217978
16145,TiGaPd,-0.6477221102777774
16146,Sr8(MnN3)3,-0.8898530002313223
16147,Cs2Hf(WO4)3,-2.5992758258812247
16148,Ca6Al7ClO16,-3.4461649355
16149,Yb7Al5Ge8,-0.5604627275000006
16150,PtI2,-0.41587691750000033
16151,SrIr2,-0.277446573888889
16152,Na2PbO3,-1.685241230933908
16153,Cs2PrF6,-3.311984526206897
16154,CaMnFeGe2,-0.34192128358620694
16155,Rb2PrCl5,-2.5560390518749996
16156,LuB2Ru3,-0.4860821905555556
16157,Dy5NiPb3,-0.5258489094444445
16158,K4Ta2S11,-1.2632126791985296
16159,Eu3(GaP2)2,-0.8870086653703689
16160,ErMgAu,-0.6814006122222219
16161,LiH4SNO4,-1.4853592387689398
16162,Pm2GaSn,-0.5671201743749998
16163,SrZrN2,-1.4768449279166669
16164,TlP5,-0.025470819166666676
16165,Sm2Sn2O7,-2.9991286918181816
16166,Nb3CrSe6,-1.1108579104062486
16167,Cs3TbF6,-3.5415980858793104
16168,K2Te(WO4)3,-2.148162922694444
16169,K3NbO8,-1.69105916325
16170,LiHO,-1.7951148311111105
16171,Sr4In2N,-0.5380490845238098
16172,U(Al10Cr)2,-0.13145515130434807
16173,Na3Al3Si3AgBrO12,-2.935216349513993
16174,Nd5Ge3,-0.7022479081250008
16175,YNiSb,-0.9636055455555557
16176,EuIn2Ni9,-0.14523695791666688
16177,WF4,-2.6278297820000005
16178,DyCoC2,-0.3468203037499995
16179,SrF2,-4.232558450555556
16180,Er2CoGe2,-0.7528387080000002
16181,KNb3(PO5)3,-2.8923638351363636
16182,LiCaGaF6,-3.463849241759259
16183,Ba(SbPd)2,-0.8802334100000003
16184,NaLaH2S2O9,-2.294549067520115
16185,Na3Mn2SbO6,-2.0363285137931038
16186,K3Nd(PS4)2,-1.35237433147619
16187,CrAgO2,-1.6873305216666665
16188,K2Bi8Se13,-0.7935319241942934
16189,TbCuS2,-1.6298206340624999
16190,K3InCl6,-2.0208174344
16191,Lu3Ga5,-0.6047293509374998
16192,Gd5P12Ru19,-0.8570640251388887
16193,ThSiAu,-0.775857973333333
16194,Hf9NiMo4,-0.193379211785715
16195,Cs2AgI3,-1.3268328850047897
16196,Ba2In13Ir4,-0.3038522268421052
16197,Li2Ti3MnO8,-3.094487453364122
16198,TmCuGe,-0.6663012055555555
16199,CsAgBr3,-1.2416653894195402
16200,Dy3Si2Ni,-0.7131636579166667
16201,ThCrB4,-0.5750328736111108
16202,ZrZnAu2,-0.47000986750000084
16203,TaSbRu,-0.4429764416666669
16204,Al2HgSe4,-0.959560753482143
16205,Yb(Ga4Co)2,-0.3761265463636363
16206,Sc3(Ni10B3)2,-0.43820955482758583
16207,NaCe(CO3)2,-2.503338107655172
16208,YCrB4,-0.6532508868055551
16209,Sr(TbS2)2,-2.4083620188095236
16210,HfRu,-0.8243854824999985
16211,P3Ru,-0.5239208406250002
16212,Dy(CoSi)2,-0.8021457339999991
16213,Sr2ZnGe2O7,-2.6016153644444437
16214,TiSnRh2,-0.6565809620833338
16215,La2PC,-0.8709921320833329
16216,La5Pb3Se,-1.0081597085937501
16217,RbW3Br7,-1.071270019090909
16218,NaTaCl6,-1.9319272473814646
16219,PmMgZn2,-0.35160442437500006
16220,NdF3,-4.485067028125001
16221,K2PbO3,-1.5952291260000002
16222,Sc5CCl8,-2.179715244642857
16223,Hf2InPd2,-0.6450537449999999
16224,K4U(PO5)2,-2.916033041392157
16225,KCuSb3F18,-2.626771477956522
16226,Sc6Ni18Ge11,-0.5882239180000007
16227,Ca4Nb2O9,-3.3351709735000012
16228,Ir(Cl2F3)2,-1.175327876818182
16229,CsLi2Gd4(BO3)5,-3.231857124738186
16230,InPbCl3,-1.3852290869999997
16231,Ce4Ga5Br2,-0.9795827747727269
16232,Co2N,-0.05291116333333316
16233,ZrAlAu2,-0.5340977549999995
16234,Ta3RhS6,-1.2858442938750003
16235,CoTe2,-0.48799499499999993
16236,Ba4Dy(CuO3)3,-2.390864987941177
16237,Lu(Fe2Ge)2,-0.2962838042857143
16238,Na5SnAs3,-0.4187892539176248
16239,CaSn4(PO4)6,-2.5946536354285716
16240,Lu2CuRh,-0.6485532175
16241,K2LaTa5O15,-3.3694293100434796
16242,Tb2S3,-2.3759146243749996
16243,SmZnGa,-0.5628913708333337
16244,Be,0.0
16245,CsEuAsS3,-1.3942510283010054
16246,CsInSe2,-1.1738636834671334
16247,K2ZnCl4,-1.9994169031190476
16248,SrAgTeF,-2.164079085208334
16249,NaLuP2O7,-3.1317822012016707
16250,SmGa3Pd,-0.6789751894999995
16251,LiMgSb,-0.6262748177777778
16252,HfGeRu,-0.7512123622222222
16253,AcCdHg2,-0.413089785625
16254,BaBeF4,-3.9307226199999996
16255,GdMgIn,-0.3985374933333337
16256,TaFeAs,-0.3896801175000005
16257,Sm3Co4Sn13,-0.3577479959999998
16258,Tb4MgRu,-0.23813905791666676
16259,Ba2V3BiO11,-2.6534779491176477
16260,EuNiGe,-0.5803409866666674
16261,Dy(Al2Fe)4,-0.430861921538462
16262,GdAgSn2,-0.45785236916666605
16263,DyHSO5,-2.5451553339843764
16264,Ti2ZnRe,-0.31489864791666733
16265,Ca3Cd2,-0.28833979249999986
16266,EuMgTl,-0.29422510611111125
16267,KLiBeF4,-3.3575893394761898
16268,Lu2RuPt,-0.9262853412499998
16269,Ba4Bi2O,-1.518548810714286
16270,Cr2AgTe4,-0.4466767495238102
16271,DySiRu2C,-0.602254348000001
16272,PrNiSnH,-0.628785817499999
16273,ErLuRu2,-0.42708408749999904
16274,Zr2SeN2,-1.8083756424687507
16275,Rb8Nb6H28O33,-1.941545191533333
16276,TmNi2B2C,-0.5234699658333332
16277,LiNi2Sn,-0.27391635208333387
16278,DySiPt2,-1.1637857718750002
16279,Sc2Mn3Si,-0.3755368564655169
16280,KAgCO3,-1.6521066266111113
16281,EuS,-2.389935559062499
16282,Ta2Hg2F11,-3.1089496876666667
16283,KMnCl3,-1.8184382256862068
16284,Pr3Re2O9,-3.007752996785715
16285,NiPRh,-0.6491105777777774
16286,Na6Cd16Au7,-0.21770542583828784
16287,Li2CdSnS4,-1.1090520848958336
16288,Mg(AlCl4)2,-2.0631001704545455
16289,Ba2PrIrO6,-2.6734990605
16290,Na4CrO4,-1.9075630901340987
16291,Te2Br,-0.34594006625000046
16292,CsFeCuF6,-2.5041537208812263
16293,Y4Ga16Co3,-0.5107624205072464
16294,NdSO,-2.9440763002083337
16295,Dy2Ga3Cu,-0.5976585237499995
16296,Mn3Al9Si,-0.2703663775994694
16297,NiP3,-0.3026625806249994
16298,RbHo(WO4)2,-2.6729669064583335
16299,Gd2Cr2C3,-0.2668552157142849
16300,CsAu,-0.3072804939655174
16301,CsAcTe2,-1.3877676151077587
16302,NaO2,-0.9140585888505743
16303,Nd7Rh3,-0.4968309579999996
16304,Ca4Cl6O,-2.8964258645454546
16305,KTlO2,-1.3916903565833332
16306,Al2Si3H8(NO5)2,-2.199521530300001
16307,Sr3As4,-0.958234255714286
16308,Ce(HoS2)3,-2.369804006375
16309,Tm2Te5O13,-2.2060866634166674
16310,PrCoGe3,-0.5694756509999997
16311,Li2UI6,-1.2747651835185185
16312,Eu3O4,-3.217397807142857
16313,K3AuSe2,-1.1396046289479165
16314,CrH18(O3F)3,-1.513245592661291
16315,K2MoO4,-2.210227617285715
16316,LuGa4Ni,-0.497525434166666
16317,LaMgRh,-0.6219972270833326
16318,Sm3(Si3Pd10)2,-0.8166636922413792
16319,CuSe2,-0.39791102822916596
16320,Lu(Al5Fe)2,-0.34245073230769224
16321,Er3Pd4,-0.9676120407142861
16322,Dy2Re3Si5,-0.5584594317499991
16323,Zn2CrN3,-0.33216565333333276
16324,TaSiRh,-0.8068752133333325
16325,CoBiPO5,-2.1316505551041667
16326,EuGe7Ir3,-0.44027804454545494
16327,NaAu(S2O7)2,-1.6460702414525854
16328,NdCoGe2,-0.6589943262500002
16329,Ti3O,-1.5699139624999994
16330,Li3B11O18,-2.8221159168229173
16331,Be12Mo,-0.1278049638461541
16332,LuN,-2.0580220474999997
16333,Ca2MgPt2,-0.8870293119999999
16334,Ti2MoPt,-0.6417984816666653
16335,Ba3P3ClO10,-3.1403389935294124
16336,MgPd3,-0.49616526500000013
16337,IOF3,-1.6484315015
16338,BaNd(SnS3)2,-1.476210622125
16339,Lu2(CN2)3,-1.0336867595454542
16340,La6Sb4(SO4)3,-2.8813503591750007
16341,Pr2Ni12P7,-0.7312544715873018
16342,Pr(Cd10Ni)2,-0.09829566347826102
16343,Nd11In9Ni4,-0.47832504958333405
16344,Nd4MgNi,-0.15653476291666676
16345,H4CSN2,-0.38631474414062605
16346,PmEuRh2,-0.5060613931250009
16347,BaS3,-1.4350043035937503
16348,Ba4Ti2PtO10,-3.007742279215686
16349,Cu2AgO4,-0.7324957166666662
16350,Li2MgTi3O8,-3.238871393511904
16351,CsSmO2,-2.8933207957327585
16352,La(AlZn)2,-0.45438391899999997
16353,Ca(AlS2)2,-1.6967947657142852
16354,RuO4,-1.1819762587499993
16355,NpSn3,-0.1351723659375006
16356,Rb2(NbCl3)3,-1.8844286842857139
16357,Zn3TeAs2Pb3O14,-1.7556799373913041
16358,CoBi6(SO8)2,-1.7766392650499996
16359,HoZn12,-0.17954031000000015
16360,LaNiAs,-1.0716516850000002
16361,Ga2PbS4,-0.9535019307142848
16362,CsTmP2O7,-3.1658040607967606
16363,VCr,-0.041559644999999534
16364,Gd2Re3Si5,-0.5574220149999988
16365,V4P2C,-0.773496486190476
16366,Sb2F13,-2.127525300833333
16367,KTa(BO3)2,-3.0043874571333333
16368,Ba6Lu2Al4O15,-3.4364061355555555
16369,As3Pb5ClO9,-1.6308380011111108
16370,Y2Co17,-0.09423472149122865
16371,Na3Np(HO3)2,-2.289776842783765
16372,Ba3Er2MoO9,-3.225766279
16373,AcHg3,-0.4163253181250002
16374,Na5(InTe3)2,-0.8939626796352784
16375,Rb6Sn2S7,-1.2292091009583335
16376,NaMgH3,-0.30838298781034473
16377,Nd2C3,-0.16735769999999944
16378,CdSeO3,-1.4163792927187502
16379,MnO2,-1.8058299401436788
16380,Yb2AlNi2,-0.45182005799999986
16381,VBr2,-1.2089157916666669
16382,Ba3NiIr2O9,-2.0489745280000005
16383,Ge3Rh2S3,-0.7273138764843754
16384,Ca2SiO4,-3.4766319846428573
16385,Na3VH11IO13,-1.4876638415398349
16386,DyNi5,-0.32951002000000074
16387,Ba5Ta4O15,-3.4407432831250007
16388,Y6AgTe2,-0.7785184199074082
16389,LaGa,-0.5917099562499999
16390,Eu2PBr,-1.7227478327083325
16391,ErS,-2.2018321015625
16392,KNiIO6,-1.0665132486666664
16393,K(SnAs)3,-0.25269185721428605
16394,Ce8C8Cl5,-1.1351216502380947
16395,Rb3LiPb4,-0.23407709385416675
16396,Tl6Si2O7,-1.9053142706666668
16397,Hg6BiAs4Cl7,-0.7094455945833332
16398,ZrAlCu,-0.40291339833333356
16399,LiMg2Hg,-0.2576582795833333
16400,La3Te4,-1.8453124857142862
16401,ErRh2,-0.7588506883333336
16402,Nd(GeAu)2,-0.5436437239999996
16403,Cs2NaYI6,-1.6872728459080464
16404,RbDyO2,-3.042217574375
16405,V3Sb,-0.2631990025000004
16406,CsLaZr6CCl18,-2.3065492078863343
16407,Mg2PtO4,-2.1892170864285707
16408,CeAsPd,-1.1017798966666668
16409,Al3Si3Ag4IO12,-2.5313472142028983
16410,CdMoO4,-1.8208159250000004
16411,Ti2SbP,-0.9550446912500004
16412,Tb(FeGe)2,-0.45270790399999966
16413,Ti2O,-2.0355361072222222
16414,Sr2C(NCl)2,-1.8597153490476188
16415,YbZnCuP2,-0.6224045273333332
16416,DyTlSe2,-1.6168478795052077
16417,GaSeCl,-1.2157001457812502
16418,Na2PdCl4,-1.5960034472290638
16419,LiTiIr2,-0.6602290141666671
16420,Ge3PbO7,-2.015099273181818
16421,K15Mo7N19,-0.5723936317073167
16422,CsSm2Cl7,-2.6935225432931036
16423,ZnGaRh2,-0.6160169893749998
16424,Ti3Se4,-1.4834336999107143
16425,GdInO3,-2.949537823666667
16426,Cs2LiVO4,-2.368656789274425
16427,LiTiCrO4,-2.8864166684523807
16428,RbFe(SO4)2,-1.9584694711458337
16429,SnSbPt,-0.50500306
16430,Sr3MgPtO6,-2.6273624754545453
16431,Lu2Se3,-2.13228777140625
16432,Np2Si4Tc3,-0.4748029924999994
16433,NaSmCu2F8,-2.9108996742959765
16434,HoIn3,-0.3915143900000002
16435,YbBO3,-2.9494495678333337
16436,Cs2VH2(OF2)2,-2.529036739623824
16437,Ba5(IO6)2,-2.299062889736842
16438,Ag3AsF12,-1.8056754346875001
16439,HoSnRh,-0.904001795
16440,Li3AsH36(SeN3)4,-0.5151948320424111
16441,RbCuO2,-1.357687516875
16442,Ca2Ge7O16,-2.3710887062
16443,Cs2V5O13,-2.4115954665431047
16444,Rb2P2Pd,-0.5060201643333329
16445,NaCoSO4F,-2.0704865590220907
16446,BaGe(PO4)2,-2.8003357268055553
16447,LiTe(H3N)4,-0.5105125199074073
16448,Ce3(SiRh)4,-1.016201700454546
16449,LaZrF7,-4.246175446944444
16450,NdMg,-0.10844391500000006
16451,K2CrF5,-3.1139924659062497
16452,Rb2ZnH12(SO7)2,-1.6310052869758058
16453,Ba7Ca2Mn3V2O20,-2.829842170699797
16454,K2SbAu,-0.5627101415000002
16455,TmAlCu,-0.4685214444444436
16456,PrRh2,-0.6307770833333327
16457,NiS2,-0.592158435416667
16458,BaZnF4,-3.3938069125
16459,DyH2,-0.8047211100000004
16460,Ca2FeWO6,-2.6725112810000007
16461,Ce(ClO4)4,-0.8553178721428568
16462,Ca11AlSb9,-1.0605047771428568
16463,CePtRh,-0.8871371566666658
16464,Li(Sn3Pd)2,-0.337015535370371
16465,BaAu2(SO4)4,-1.7456840540217389
16466,Sc4B12Rh17,-0.6196028880303022
16467,DyNi4B,-0.49049388986111114
16468,NaAgF4,-1.9808736363697317
16469,Ba(NiP2)2,-0.6554143761904763
16470,Er2S3,-2.3664844755416663
16471,LaCeNi10,-0.3143584091666665
16472,RbGa7,-0.103526246875
16473,BaNaCr2F9,-3.3479657176193642
16474,La3Si2Rh3,-0.9179258856249994
16475,HoAg(WO4)2,-2.3789709168055566
16476,Eu(CuSn)2,-0.36061467499999933
16477,GdAlCu,-0.4334275133333342
16478,MoRh3,-0.23502710625000134
16479,NaScAs2O7,-2.361700082413792
16480,NaGa(SeO3)2,-1.6659885058739228
16481,Cs8(Re4S9)3,-1.0518617302728355
16482,CrNiP,-0.5153133819444449
16483,Rb2PO3F,-2.757753450476191
16484,ClO3,-0.3392175312500001
16485,La4B2N5,-1.5067087612121215
16486,TaCoGe,-0.4225281383333339
16487,CaGeAu,-0.7222715880555555
16488,Dy3CuSiS7,-1.8139947389062503
16489,Hg(Mo3Cl7)2,-1.3023605167857146
16490,KGaCl4,-1.8941335846666665
16491,Cs2ScInI6,-1.4468913000862074
16492,CeThB8,-0.6496536548333338
16493,Th(SiOs)2,-0.7776301160000003
16494,Eu(GePt)2,-0.8315550569999999
16495,TmNiSn2,-0.5389525527083331
16496,GaAu,-0.22946795749999982
16497,RbHSO4,-1.9564708443749999
16498,Ca4Si2O7F2,-3.6302965190000003
16499,Cs2Pd(IBr2)2,-1.2746292728735635
16500,BaPd2,-0.5777919516666667
16501,Ca5(OsN3)2,-0.732876406153846
16502,Cu2SiHgTe4,-0.3220686293749999
16503,ScCoC2,-0.32310355374999933
16504,KV(IO4)2,-1.472272223583334
16505,BaCrF6,-3.3129632593750005
16506,Pt5Se4,-0.5113234260416664
16507,KCeGeSe4,-1.386684801053571
16508,Ho3Pt4,-1.2413031407142856
16509,YbRh2,-0.5898220249999989
16510,TbYbPt2,-1.1751174400000002
16511,SrAg,-0.31863303104166674
16512,Ba(LuS2)2,-2.416585205357142
16513,CeAl2Cu3,-0.36476813583333306
16514,MgTl,-0.036482921666666446
16515,Mg2AgAu,-0.44367547416666664
16516,Na3NbS4,-1.3504986452693961
16517,K2CdO2,-1.4227824771999997
16518,CeTl,-0.25640399416666604
16519,Ba3In2(PO4)4,-2.929718829933333
16520,Na3BiO4,-1.7271877912068963
16521,Sm2Ge5Ir3,-0.7465528959999993
16522,CaPt5,-0.5135041733333333
16523,NbP2NCl12,-1.3550766885416659
16524,Li2EuSn,-0.48487141916666676
16525,CsPr6FeI10,-1.4342569104406127
16526,Np2InRh2,-0.2645480015000004
16527,EuTl3,-0.27120968375000043
16528,Mn2InAgTe4,-0.4008277765660919
16529,BaBe2(PO4)2,-3.130315517435897
16530,Lu5Rh3,-0.8128995912500008
16531,La3LuSe6,-2.2823511081562495
16532,Rb3PdF5,-2.5001443800000005
16533,RbAuBr4,-1.1192735629166666
16534,MnSe2,-0.6136224200395107
16535,GaHg2SbCl4,-1.0838531909375
16536,K2CoP2WO10,-2.437266410010416
16537,NbFeSi2,-0.5581808458333342
16538,SrAlSiH,-0.45997700791666674
16539,EuSbPt,-1.0693758841666667
16540,La3(GeRh)4,-0.9197204077272726
16541,KSb(PSe3)2,-0.6445033048729165
16542,Rb3TmCl6,-2.5074115831666663
16543,Ta2(Ni7B2)3,-0.3301429939655177
16544,Rb2VCuS4,-1.2805372409375
16545,Th3SiGe,-0.6763657009999988
16546,Sm5Ru2,-0.26856026142857153
16547,MgRh,-0.4648692800000003
16548,HfS,-1.758277926562501
16549,RbTbP2O7,-3.1402579860606052
16550,La7Sb11Br4,-1.3857857902272728
16551,BeAu2,-0.13576859500000005
16552,Nb9TlSe12,-1.0932017850662872
16553,LaUTe6,-1.1269698493750004
16554,Mn3ZnN,-0.27618608575861997
16555,ErTlS2,-1.737230032395833
16556,Cs3Fe2F9,-2.8739185465209363
16557,KAu(SO4)2,-1.6788964261875001
16558,Sr2LuTaO6,-3.6043952383333333
16559,GdNi4B,-0.4777040681944449
16560,SrAs3,-0.6018087416666669
16561,YbMgSi,-0.4208023100000003
16562,BiPt,-0.27290914249999965
16563,RbGa2P5O16,-2.610974905173611
16564,TaGaCo2,-0.36007711187500036
16565,SmGa4Ni,-0.5529090333333334
16566,ZrIN,-1.6203751316666661
16567,CsGdCdTe3,-1.3131669596551727
16568,PRhS,-0.8761422563194449
16569,Na6Co(SO4)4,-2.1141269095114943
16570,La4Ti3(SO2)4,-3.2641281206578956
16571,KDy(MoO4)2,-2.549865696500001
16572,Y3Mn2Sb3O14,-2.722703699811913
16573,ZrSi2,-0.6004638316666681
16574,Ce(PRh)2,-1.121195138333333
16575,Rb3Er7S12,-2.243357700681818