,formula_pretty,formation_energy_per_atom
8406,TmSi3Ni5,-0.6967146082407404
8407,CsLu(NbBr3)6,-1.5083398726127322
8408,Ca2P6O17,-2.8564465208000005
8409,K2Mn2Be3F12,-3.299173428190109
8410,KSr2Cl5,-2.736666580166667
8411,Ce7Ti4(Se2O)6,-2.501393927119253
8412,Mg3(TaAl9)2,-0.12131108086956527
8413,BaFe2(SeO3)4,-1.6715155865460531
8414,IN4,-0.263734393
8415,YCo3B2,-0.4843933500000001
8416,V2Zn3TePb3O14,-1.9347423765217386
8417,Nb2Pd3Se8,-0.9101750379807689
8418,HfGeMo,-0.5461870783333337
8419,Yb3Ni,-0.19648701937500013
8420,La2Mg(NiH4)2,-0.5473198461538462
8421,KLiMn2(SiO3)4,-2.82838233060977
8422,Al2H12(SeO5)3,-1.6117617463134772
8423,Na4Co9(MoO4)12,-1.821028425632971
8424,K3ZrH2S(OF)5,-2.738705066595589
8425,SiH14(OF)6,-1.7937610794444447
8426,BiS2,-0.5917912854166669
8427,Sm2(CN2)3,-0.9582759136363628
8428,CdSnF6,-2.7182544212499997
8429,Ca3UN4,-1.4624016775
8430,La3B2N5,-1.5799905774583352
8431,HfAu2,-0.5607108033333326
8432,Na3Li3Cr2F12,-3.138889978357759
8433,YPt3,-0.9691539091666668
8434,LiCeSn,-0.531441001527778
8435,Ce(FeGe)2,-0.450349679
8436,CsFeCoF6,-2.6856922119923365
8437,Sr3GdRhO6,-2.8971969631818193
8438,YInAg2,-0.37822828999999913
8439,SrCa2WN4,-1.2326911409895835
8440,InI2,-0.7662354883333329
8441,Er3Pb4F17,-3.5878853923958336
8442,HoPb3,-0.25861093249999945
8443,Hf3As,-0.6427713843750009
8444,BaAg2SnSe4,-0.9696821309635415
8445,KTm2Cu3Se5,-1.3210309289138253
8446,K2Si4O9,-3.0670450347333342
8447,BaBrF,-3.4237627950000005
8448,PuSb2,-0.6283503525000013
8449,RbAlNiF6,-3.2236028308333338
8450,Mg2Te3O8,-2.0586252538461527
8451,In2(PS3)3,-0.6783196557589284
8452,Te8Rh3,-0.6641136027272719
8453,LaTcN3,-0.8146152594999989
8454,EuAsPd,-1.0214381766666658
8455,Nb14S5,-0.6592761335855253
8456,RbEuSiS4,-1.5358205860714287
8457,ScB2Os,-0.6804358920833327
8458,MnAlRh2,-0.6837290594827579
8459,AlCuBr4,-1.2135572549999996
8460,Zn(GaS2)2,-1.0194326910714284
8461,Zr(PS3)2,-0.9954331317129635
8462,Yb(CoP3)4,-0.5642912470588236
8463,Fe11Co5,-0.05703543718750126
8464,CaDy2(GeO3)4,-2.8306551194736844
8465,TbSiPt,-1.1820994400000007
8466,BeH8(IO5)2,-1.2940961471428576
8467,TiP2W,-0.8147772949999998
8468,Eu5Bi3,-0.8473782587500001
8469,ThSn2,-0.5375829683333334
8470,KFe2P3(O4F3)2,-2.6643649741499997
8471,Cr2HgS4,-0.854028606785714
8472,CsBeAsO4,-2.2954097136330054
8473,Nb5P3,-0.8720219670312499
8474,U2SeN2,-1.72695530646875
8475,Y2Fe14C,-0.06857161681372592
8476,CaSnAu,-0.7379698925
8477,MgNi3C,-0.13670492599999945
8478,Eu(SeO4)2,-1.493564237471591
8479,ZrBi2,-0.27491492499999975
8480,PtCl2,-0.7814531122222215
8481,Na3TmSi2O7,-3.0704625665119383
8482,YCdAg2,-0.29621540999999985
8483,BaTiOF4,-3.9302439072619046
8484,AlReGe,-0.24777780666666752
8485,KNa22C2S9ClO42,-2.1974377631852335
8486,K14In4O13,-1.660903785548388
8487,TiMn2W,-0.24186160979885152
8488,LaIn3,-0.47596348125
8489,Cr2AgS4,-0.8354481741666666
8490,ErB2Ru3,-0.4817302738888891
8491,LiV2O5,-2.4542407110416686
8492,Na4UC3O11,-2.4242927598003625
8493,Gd(Al3Ni)3,-0.5243540926923083
8494,Sr2LuIrO6,-2.8277612078333334
8495,K2BeO2,-2.1087224357000003
8496,Al2CdBr8,-1.4528865304545455
8497,Li2Pr2Si3,-0.5788399302380957
8498,BiTePt,-0.47711152916666677
8499,Ba2ZnSb2,-0.9506605539999999
8500,LuCd3,-0.22911340624999976
8501,Ti2NiMo,-0.2855361891666668
8502,Lu2(Al3Ir)3,-0.8405981171428566
8503,SrCdBi2,-0.45573096041666705
8504,Cr21(WC3)2,-0.08523852586206666
8505,Na5SiP3,-0.4130860680842912
8506,Li2S,-1.503764779930556
8507,YAsPt,-1.2070435130555548
8508,ThCdAg2,-0.15878203083333364
8509,Ba3Sc(BO3)3,-3.2823075975520837
8510,KSb5O13,-1.8907607280526317
8511,TiSi2,-0.5140547144444447
8512,HfIr,-0.9479892349999997
8513,RbGdH2S2O9,-2.290064482250001
8514,Ho(CoGe)2,-0.6093748020000007
8515,TiTlPO5,-2.787686611406251
8516,Ni4Sn3,-0.25849182892857164
8517,PrScS3,-2.303105978875
8518,Na2ScPCO7,-2.7421195205363973
8519,LaAs,-1.5636853300000002
8520,Ba3Na3(CO3)5,-2.3756466457559684
8521,Li3Mo2(PO4)3,-2.5660819415
8522,EuHfS3,-2.1078614563749993
8523,ThBRh3,-0.8832719698333321
8524,Sm2CdGe2,-0.7342250759999999
8525,TiSiRu,-0.8563297016666682
8526,K6HgSe4,-1.1746828633977273
8527,Re2PbO8,-2.1080908581818183
8528,BaV2(PO5)2,-2.8184220841111114
8529,LaEuZn2,-0.28667736249999987
8530,K3Sn5Cl3F10,-2.500146200190476
8531,ZrS3,-1.5754443998437502
8532,Pm2ZnRu,-0.25639064749999996
8533,CsFeF4,-2.82505994632184
8534,Ba6Zn(InCl10)2,-2.420785089482759
8535,ThCoGe2,-0.68588499125
8536,Ba6Ca2Ta(RuO6)3,-2.7243816711666673
8537,Ce2Ga12Ni,-0.38919804866666635
8538,PrVSb3,-0.6507108625000001
8539,VW3,-0.08657794249999995
8540,Y3Te3N,-1.740484031428572
8541,LaNi,-0.3268839925
8542,Y3CuSiS7,-1.8123297509895835
8543,Ac2ZnIr,-0.37466560125000026
8544,YCl3,-2.744038531666667
8545,CoAgO2,-1.014486349166666
8546,Pr(FeSb3)4,-0.33221944617647087
8547,Mg6Ni16Ge7,-0.3832746977586206
8548,Sr2YbBiO6,-2.5452046118333334
8549,Ca2MgAs2(H2O5)2,-2.216318055000001
8550,Li3Mo3P3O17,-2.4216785160576917
8551,Sr5(InBi3)2,-0.662577823333333
8552,Tm12Co5Bi,-0.31715586583333294
8553,EuGe3Pd,-0.580224896
8554,Na4NiP2O7F2,-2.587488224554598
8555,AgSnSe2,-0.5247881940885413
8556,GdAlRh,-0.8939987633333324
8557,AcInAg2,-0.3012645014583333
8558,HoB2Ru3,-0.4777488805555545
8559,Cs2VCl6,-1.9838364784291187
8560,Nb2TcOs,-0.2534931512499998
8561,Nd(AlGa)2,-0.44787596699999954
8562,SnH16(ClO2)4,-1.3082456625862076
8563,SmTlAu2,-0.5673307520833335
8564,Sc2MnS4,-1.8330951300615763
8565,LaFe4(CuO4)3,-1.681435189750001
8566,CsEr2Ag3Te5,-1.0512367739028214
8567,InAgSnS4,-0.6972308741666663
8568,K3Ge4Au,-0.2773652786249996
8569,Sr2UO5,-3.615296261041668
8570,Bi2Rh,-0.1931886725000004
8571,Ba2Mn2CuF14,-2.966773476098004
8572,Np(GePd)2,-0.4522316437499995
8573,BaBrCl,-2.7892077575000003
8574,YbCrO4,-2.562486461666667
8575,CaAg,-0.33720075333333277
8576,K3Ta3(BO6)2,-3.0601646518666663
8577,Rb2Th3Mg(MoO4)8,-2.5619174742391313
8578,Nd2GaNi2,-0.46598695949999963
8579,Lu4CdIr,-0.5529118120833326
8580,Tb3Sc2S7,-2.308756420989584
8581,ThSiPt,-1.176425441666667
8582,ErTiClO3,-3.5429400630555556
8583,V2ReOs,-0.3172075799999998
8584,KYb2Cd2Sb3,-0.7171549394375001
8585,DyWC2,-0.28367913124999866
8586,AlCl3,-1.9658118112499996
8587,TiInRh2,-0.6435613333333343
8588,Sr4Lu3F17,-4.372357097048612
8589,PmSe2,-1.9357065632291668
8590,DySi2Rh3,-1.0194945133333337
8591,Na2U2Si(O4F)2,-3.3845456482068963
8592,Cs3IO,-1.458762871758621
8593,TaGaRu2,-0.5777680668750005
8594,CeAlGe,-0.5956904966666663
8595,CsSb(SO4)2,-1.9733788095150857
8596,Ho2MoO6,-3.1949578130555554
8597,Sr2DySbO6,-3.111958474833334
8598,Tb2Ti3Ge4,-0.7955875847222226
8599,Ce2(Ga3Ir)3,-0.6725493641071429
8600,Er14(InPd)3,-0.47841499499999995
8601,Ba6NaCu3Te14,-1.2394545965229884
8602,CeHSe,-1.5793014324479167
8603,Sr3LiTaO6,-3.208766078939394
8604,Ba2PrPaO6,-3.6248572705000006
8605,ThCoSi,-0.6852677416666673
8606,Tm2Co3Si5,-0.7319833223333333
8607,Re3Ni,-0.10944828000000051
8608,Tm(Ni2As)2,-0.6241712480952383
8609,TbVB4,-0.6991716436111114
8610,Li10CoNi9O20,-1.527956917458333
8611,CaHBr,-1.5730689541666665
8612,Nd4Si2S3O7,-3.2464211610546876
8613,Pr(SiPt)2,-1.0205849769999993
8614,GaCo,-0.2818487862500003
8615,Hf10MnSb5,-0.5026141629956893
8616,Rb8Ti3Cr2Ni3(P2O7)8,-2.708856745037879
8617,Tm(BO2)3,-3.2031433772291664
8618,UP2(PbO5)2,-2.768456842444445
8619,MnZn2N3,-0.20552354715517276
8620,Cs2PtC2,-0.05903332517241324
8621,K3Yb(SO4)3,-2.3162245920197373
8622,Ba3BiN,-0.849206393
8623,Yb(MgSb)2,-0.7880707279999999
8624,SmZnPd,-0.719417243888889
8625,U2Cu4As5,-0.3637052940909084
8626,V2WO6,-2.4265650783333337
8627,PrMgGa,-0.4824599974999997
8628,Sn(SbTe2)2,-0.42160478214285696
8629,Zr6CoCl15,-2.09405162159091
8630,CsGdS2,-2.0695595110452594
8631,AcCrO3,-3.1389721295
8632,Na5NiO4,-1.4252066626508622
8633,TlPdF3,-1.6963438301666667
8634,UCl3,-2.1681992649999993
8635,CsLiMnS2,-1.2515294010890812
8636,DyGa2,-0.642557768333333
8637,ScCrC2,-0.34261577874999993
8638,Li3Dy3(TeO6)2,-2.7826923253749998
8639,AlV,-0.22676856500000042
8640,Si3(BiO3)4,-2.464401478157895
8641,Nd2P3(HO2)5,-2.4773095727500007
8642,Lu3Ge3Ru2,-0.7816321724999993
8643,Na2CN2,-0.6001180086206901
8644,Pu2Si4Tc3,-0.5537202361111105
8645,YbI2,-1.9153547866666674
8646,Ba(DyS2)2,-2.424406686785715
8647,NaFeF3,-2.742492288310345
8648,SmIn2Cl5,-1.9511642143749999
8649,CsUCuSe3,-1.3153337433270462
8650,Sm9Al(SiS7)3,-1.9397342136948523
8651,Hf2GaSb3,-0.5438595895833332
8652,Rb4Mg3H10,-0.3311970220588232
8653,Ba2Dy(CuO2)4,-2.060955604
8654,UB12,-0.27362737692307676
8655,UAl5Cu6,-0.23699855875000017
8656,LaCuPb,-0.4246051150000009
8657,Cs3TiF7,-3.4283228708751308
8658,Sr(SnHg)2,-0.3410227993333336
8659,AcYbCd2,-0.36342224062499984
8660,ErPd3,-0.9162609850000001
8661,Tl2Se3,-0.4911992607395831
8662,ZrFeF6,-3.5001322043750003
8663,ErAlZn,-0.44936719500000066
8664,PrAs,-1.4911525999999995
8665,K2GeSe3,-1.103703364671875
8666,K2Te,-1.164692938666667
8667,Eu2I2O,-2.3933305650000003
8668,CeSiBO5,-3.367539213645833
8669,BaNd2Sc2O7,-3.7554454827083337
8670,Tm4(Al8Pt3)3,-0.8965168661261264
8671,LiVF5,-3.100480296369048
8672,Fe2P4Pb3O16,-2.3524219317333324
8673,In5S5Cl,-0.8649513418750003
8674,SmSi3Rh,-0.7940730189999996
8675,Ba2ZrSnO6,-3.1393169064999995
8676,PtSe2,-0.7020171048958327
8677,Th7Ru3,-0.4120696389999992
8678,LuMg149,-0.02602485513333325
8679,ThZn2,-0.2844131300000002
8680,KNd2CuS4,-1.8773853494374997
8681,ScHg,-0.429523455
8682,Sr2Mg(BO3)2,-3.1881523910606053
8683,CsHPt2(SO4)4,-1.6290496560596257
8684,Zn3Cu,-0.08087976250000017
8685,Ba4Re2NiO12,-2.6058815931578945
8686,Nd2InNi2,-0.4293859750000003
8687,NaHf2(PO4)3,-3.2515354242528747
8688,Mg(BiO3)2,-1.7052333550000003
8689,ErCl3,-2.6690462137499997
8690,Ce2(ReB2)3,-0.5219799036363626
8691,SrHClO,-2.4598811291666665
8692,K9Ce(PS4)4,-1.2951249720111107
8693,Nd5Bi3,-0.7712264712500003
8694,TiTlCuTe3,-0.6757836936111108
8695,LiInPt2,-0.5502796883333332
8696,Mo8O23,-1.9352214259677423
8697,DyMgTl,-0.3225994933333334
8698,PrBRh3,-0.671224156833334
8699,Cs3Sb2Cl9,-1.8169625845566502
8700,CaCd2,-0.32861245666666683
8701,Th7Ni3,-0.27808643700000035
8702,AlFe2W,-0.20831024249999963
8703,CsAuS,-0.9443346670186781
8704,ZrCoP,-1.1509318527777772
8705,Rb2NaScI6,-1.5635083796551725
8706,K4Sr(SiO3)3,-2.909387269333334
8707,SbH7(Br2O)3,-1.0558766663235293
8708,Sr3Tb2(BO3)4,-3.3667050807936505
8709,CrHg6As4Br7,-0.5814588570833329
8710,Cs2NaPrI6,-1.6871843717413793
8711,Na3MgP2HO8,-2.60958416675479
8712,CsTh2(PO4)3,-3.3452381415517243
8713,RbMnPO4,-2.5924520630377663
8714,Lu3Pd4,-1.0000216764285708
8715,CsBi3S5,-0.842501299284004
8716,Pr2SnS5,-1.744479871953125
8717,NaSrAlF6,-3.829529617024266
8718,LaCl3,-2.867232885
8719,HfB4Ir3,-0.5324891220833328
8720,La2Co3,-0.09097588300000012
8721,Th2Si3Ir,-0.8881979133333324
8722,MnAg2GeSe4,-0.4936882719549205
8723,Ba5P3BrO12,-3.270336651071429
8724,Eu2TiO5,-3.3642869904166677
8725,NdIn2Ni9,-0.20637172124999972
8726,K(Nb3Se4)2,-1.1486886974500001
8727,Y3Pb4F17,-3.5663670455208334
8728,Na2ZrS3,-1.6921699970797413
8729,Sr(PO3)2,-2.9940225625925923
8730,NaPr9(Ge3O13)2,-3.1005165119417084
8731,Er5Si3,-0.672257873125
8732,Ba2Mn(PO4)2,-3.0653178965075156
8733,Sr(IO3)2,-1.5401790026851847
8734,MgSc2Tl,-0.19276937083333312
8735,CrPO4,-2.5965342172222226
8736,CeZnPd,-0.6397686583333334
8737,K3CaV5O15,-2.526950521416668
8738,SmAu3,-0.6903971637500002
8739,Zr6Al16Pd7,-0.7551117965517243
8740,LaInAu2,-0.7043015612499994
8741,Th3Ni3Sn4,-0.6315998735000001
8742,U2PtC2,-0.29756260999999995
8743,Nd2Sn2O7,-2.9747577954545448
8744,KNaS2O7,-2.0949783400728843
8745,CaMnF5,-3.411809827204434
8746,ZnSnN2,-0.1402182462500008
8747,Dy2ZnRu,-0.36942991875000075
8748,Sr(RuO3)2,-1.912422591296296
8749,ZnSi(AgS2)2,-0.7477314507291668
8750,BaGd2PdO5,-3.0151824205555564
8751,Nb13AgO33,-2.976777292375886
8752,K2NaAs,-0.367731069387931
8753,Hf2SiH,-0.76287708
8754,Cr2CdSe4,-0.8327632977678567
8755,Na5Sm4Si4O16F,-3.2927810611752877
8756,NaPPdS4,-0.8537522653407227
8757,LaGaGe2O7,-2.612929012954545
8758,Gd5Si4,-0.7023569197222201
8759,Bi2Te2O7,-1.6145234107954538
8760,YBi,-0.8897824283333335
8761,La3IrI3,-1.4326904699999996
8762,RbGdO2,-2.987568246875001
8763,BaMo2(PO4)4,-2.611443328840579
8764,Ho2MgSi2,-0.6829457619999999
8765,H7NF4,-1.4672712020833334
8766,Cs2Np(SO5)2,-2.484392254724138
8767,YRh3,-0.5630479625000007
8768,Cs2MgFe(CN)6,-0.462785900366379
8769,Ho2InPd2,-0.8792651119999995
8770,Sm3(Al3Os)4,-0.5829160760526316
8771,Ta2Ni3S8,-1.0468374449999998
8772,Ce2Fe12P7,-0.7179655687301593
8773,Tb(BO2)3,-3.1976207489999995
8774,Ta3Te4ClO15,-2.335906332282608
8775,Hg3AsO5,-1.0625622522222224
8776,ZrC,-0.8049799150000005
8777,LiCa3RuO6,-2.6315727143939394
8778,PrSiI,-1.1770514266666663
8779,KCr12Si8ClO28,-2.62491201646
8780,K2UCl5,-2.2549660310625
8781,NdAlCu,-0.38016015888888904
8782,MnPd2,-0.24756227931034402
8783,EuAu5,-0.42933862083333335
8784,La5Se6N,-2.2495220808593737
8785,CaInBr3,-1.8261237385000002
8786,Tm5Pb4,-0.4736273673148151
8787,Ba2CaOsO6,-2.6811411675000003
8788,CdAg3,-0.05136987499999979
8789,Ba(CoGe)2,-0.37808450600000043
8790,Ba2TmMoO6,-3.069226787666666
8791,Ba3ZnB5PO14,-3.0173800730902776
8792,K2PbCl6,-1.685259672888889
8793,ZrBrN,-1.9031157708333335
8794,Ce3CuSiSe7,-1.5952363434505206
8795,NaVP2O7,-2.71278501938349
8796,ZrBr4,-1.7917183554999998
8797,VF2,-2.999952785
8798,Zn2Si3Pb4SO15,-2.320760699325
8799,TbAlCu,-0.4464572366666665
8800,NdBi,-0.9420233000000007
8801,TbTc2,-0.1588386574999987
8802,LaNiSn,-0.6333772400000003
8803,Cs(BH)6,-0.471149155994695
8804,TbCdPd,-0.6861476266666663
8805,ZnPPt5,-0.40817687761904764
8806,Ta5GeB2,-0.5874355397916666
8807,CsF,-2.842582285215517
8808,FeRh3,-0.030239067499999273
8809,PmMgCd2,-0.3337008418749998
8810,Tm3(Si3Pd10)2,-0.8347579962068961
8811,NdDyMg2,-0.09509411749999996
8812,UNbN2,-1.473972879375001
8813,CaCuSn,-0.44361545222222293
8814,Li2V3CoO8,-2.427013714404762
8815,Te4Mo2Ru,-0.5277635400000003
8816,La6Co13Pb,-0.14025839050000002
8817,Ce2CdSb4,-0.7937165357142858
8818,Rb2InGaF6,-2.8048593547499996
8819,Na2MgVF7,-3.336326329600314
8820,LiSn2(PO4)3,-2.5293587246296294
8821,Ba4Br6O,-2.7042861436363634
8822,Ca2WN2,-0.8463108090000006
8823,CaMgGe,-0.5683345599999997
8824,Tb3SiBr3,-1.629485608214285
8825,Cs2TlAgF6,-2.3678613990862067
8826,H4SeO5,-1.1668174604843755
8827,Sc2SO2,-3.408956953625001
8828,PbSeO3,-1.4557327054687506
8829,Cs2V(PO4)2,-2.6757963757714416
8830,YbPmAu2,-0.8926132243749993
8831,TmOF,-4.333701288888889
8832,Ca2CoN2,-0.7855157419999997
8833,ErSiRh2,-1.0320317966666674
8834,Rb2Cr2Cd(H2O5)2,-1.6901059265789469
8835,Hg2Sb7H2Xe3F59,-1.9911053799657539
8836,Ca5(AlSb3)2,-0.8593428873076925
8837,Sr2SnS3F2,-2.469281508463542
8838,TmMnO3,-3.0994951799195416
8839,Ba(BiPd)2,-0.6424738150000003
8840,CaLaCd2,-0.3796711562499997
8841,Ca2CdAs2,-0.9278598579999997
8842,Sr(PIr)2,-0.9064214546666667
8843,Cs2KScF6,-3.581362956886207
8844,Rb2MoSeO6,-1.9181227317343754
8845,NdAlSi,-0.6373150016666665
8846,Pr2SbO5F,-3.236427005833333
8847,Er6Al41Cr6,-0.27634346424528267
8848,TbRe2,-0.19576271166666595
8849,Tm10Mn13C18,-0.3166561999943921
8850,Na7Al3O8,-2.4767829272701145
8851,TmMg3,-0.044786739166666756
8852,Li4MnCrO6,-2.243357170522031
8853,TiGeTe6,-0.6205394629166663
8854,LiTm6B3O14,-3.637202745347222
8855,RbBe4(BO3)3,-2.957246211911764
8856,Cs2Te2O5,-1.7465531544013417
8857,TmBe13,-0.18492927333333345
8858,LiLaTl2,-0.3605308162500003
8859,Yb3Sn13Rh4,-0.5307964132499997
8860,Tb2Ge2O7,-3.0549282697727262
8861,Pr6S4BrN3,-2.0652575367857144
8862,Cd8Ag5,-0.06919937602564073
8863,Tl3AsSe4,-0.5177996530468749
8864,Mg149Te,-0.030798494399999942
8865,Ta4SiTe4,-0.7030292608333342
8866,Eu3Au,-0.44764615375000005
8867,BaAlSi,-0.3641834399999997
8868,Tl2CuF4,-1.9422372295238095
8869,K3ErF6,-3.6183119379000006
8870,Ho3(NiRu2)2,-0.3846581611111104
8871,CeP2,-1.044865660555556
8872,Al(BH4)3,-0.21572116828124965
8873,Cs2NiH12(SO7)2,-1.6046800468423246
8874,MgAlIr2,-0.7010672975000007
8875,CaGeO3,-2.7499819453333343
8876,Rb2AgAsCl6,-1.5379766176666663
8877,Tb4MgIr,-0.42461361916666657
8878,BaPb,-0.5882241224999998
8879,Y6InCo2,-0.2684616744444447
8880,CaPrMn2O6,-2.7428617270862063
8881,SnH12C2(NCl)6,-0.7598818000000002
8882,ErTlRh2,-0.5691387158333328
8883,SeS7,-0.4140585634440104
8884,Zn3(Ni10B3)2,-0.28208503499999926
8885,DyCuTe2ClO6,-1.9993506038636364
8886,CsPr(PO3)4,-2.9223309514591316
8887,Cd2AgPt,-0.19554842916666626
8888,NdAgSn,-0.6220615288888892
8889,Nb3PbS6,-1.3549539873750007
8890,Sc8B8As3Rh20,-0.7889649050854695
8891,Ce3TiSb5,-1.0122388892592598
8892,CsGd2Ag3Te5,-1.0982575175391853
8893,Sm(SiPt)2,-1.0788829399999997
8894,Na2Eu2B2O7,-2.8450955695335978
8895,ErInPt,-0.994519405555556
8896,Tm3(In2Co)2,-0.37347521666666633
8897,NaScS2,-1.990826301950431
8898,CsZr6BI14,-1.293566496686259
8899,HfCuGe2,-0.4055963475000004
8900,K8SnSb4,-0.4985934329999999
8901,Tm6GaCo2,-0.3200669313888882
8902,KSm(MoO4)2,-2.5394013227500003
8903,Tm4MgCo,-0.1626111640277781
8904,Nb4FeTe4,-0.622927861666666
8905,Al2H16S3O20,-1.7341197672408548
8906,Ba2UInO6,-3.175002036
8907,Zr2Sb2Pb4O13,-2.3493443321428575
8908,TiAl3,-0.397540380833334
8909,Mg3Cd,-0.08275570374999996
8910,DyIn2Ni,-0.4243059737500001
8911,Cu3(AsO4)2,-1.3094217153846155
8912,CeSiNi4,-0.5876112208333334
8913,LiSc(BH4)4,-0.3765696874999998
8914,Li,0.0
8915,CuMo3Br7,-0.9621546610227273
8916,V4P3,-0.8409744550000013
8917,Bi4Au2O9,-1.303108031166668
8918,SnPSe3,-0.5255611825729168
8919,Hg11I2BrClO4,-0.5348765748684209
8920,ErTiSi,-0.6404916977777771
8921,Tb5Sn4,-0.7448092030555552
8922,As2PbO6,-1.7356450333333333
8923,CuNi3N,-0.0821793889999995
8924,Li3Er(NO3)6,-1.4375041825892865
8925,AsPdSe,-0.5141418857812496
8926,CsO2,-0.9798474259770114
8927,Th(MoO4)2,-2.6477943089772733
8928,SmYSe2,-2.022933796588542
8929,Ba(NiP)2,-0.7735462113333341
8930,ZrScCo2,-0.35830240125000046
8931,Ba3Bi6PbSe13,-1.1275322400203807
8932,Sr5Sn3,-0.6336408185416667
8933,TbSnRh,-0.8949831438888896
8934,VNiAs,-0.39843795583333375
8935,Rb2NaPbF6,-2.764003124655172
8936,Al2CdS4,-1.255045928928571
8937,VAgP2O7,-2.40273635530303
8938,Li4Ca2Mg(SiN3)2,-1.115163904888889
8939,SrU(SeO4)2,-2.4996626871961802
8940,Ti6Ge2B,-0.6222332410185187
8941,EuCrO3,-2.7949065715000003
8942,Tb3CrS6,-2.0352122218749997
8943,Ba2LaUO6,-3.5676276445
8944,ZrTlCuSe3,-1.0936658692274304
8945,Pr20AlSi19N33Cl2O19,-2.272382749148936
8946,Tb2In,-0.34970776
8947,Ti5Sn3,-0.3480952608333334
8948,Lu2Co3Si5,-0.726967204999999
8949,Sr2MgTl,-0.2528778216666665
8950,K3Eu(PO4)2,-2.834426062190476
8951,LuPt,-1.3376010975000003
8952,Zr5SnPb3,-0.3530371905555556
8953,K12In2Se9,-1.2590159009605981
8954,BeGeN2,-0.8027333556249996
8955,Ba10IBr4N5,-1.3671648744999998
8956,Cs3Mo6(P5O19)2,-2.5269587753881835
8957,Tl3Hg2S3ClO12,-1.562864539970239
8958,Cs3CoF6,-2.668802446379311
8959,LiEu2IrO6,-2.425376598333333
8960,K3CrF6,-3.0878928444000002
8961,Ba2La3Si3O12F,-3.6751206488095227
8962,Na2TiTeO6,-2.3611210596436782
8963,Lu4Ge6Ru7,-0.6374441991176458
8964,Li3Ho3(TeO6)2,-2.7849249791250004
8965,Nd(BRu)2,-0.5092779496666665
8966,Zr6FeSb2,-0.5634980400000005
8967,Tm2CuPt,-0.8168529483333336
8968,Rb6Ta4S25,-1.145514679375
8969,SnPtS,-0.7249521593749991
8970,Cu3(CO4)2,-1.3161023242307692
8971,PmSi3,-0.22999709437500027
8972,RbSb2F7,-2.81413035825
8973,Gd2InAg,-0.40772503666666715
8974,K3SbO3,-1.8246181187857147
8975,Yb2Ag7,-0.2906069624074077
8976,DyZrSb,-0.8599407199999997
8977,Rb3AgO2,-1.1295667520486108
8978,RbNa3SnO4,-1.858273526767241
8979,InPPt5,-0.4290401933333336
8980,Re2(PCl8)3,-1.1342001428448278
8981,Ta2VRu,-0.27745545874999955
8982,K2TcI6,-0.9757334534444446
8983,Cs3EuF6,-3.24765626437931
8984,AsXe2BrOF12,-1.4831662119117648
8985,BeSe,-1.0293878636718743
8986,Na3Mo4P5O24,-2.4239940118422743
8987,K2La2B2O7,-3.151638567833333
8988,Na3HoSi2O7,-3.0590049511273216
8989,LaCoGe,-0.6178133450000006
8990,LuCuS2,-1.6200305190624995
8991,La5Cu19P12,-0.5378507101388882
8992,NdAlPt,-1.0536843933333337
8993,AsH18N3O7,-1.0254400738793104
8994,Gd2MoO6,-3.147738379444443
8995,PuInAu2,-0.41992225750000056
8996,Ba(CdSb)2,-0.6187674919999999
8997,Ba2InGaO5,-2.5715327063888895
8998,TbZnSn,-0.603628184166667
8999,Li3CuO3,-1.7813896964285714
9000,Na2MnO3,-1.909195907672414
9001,Ho3ScO6,-4.022840271000001