,formula_pretty,formation_energy_per_atom
10193,Tb2NiSb4,-0.8549358500000004
10194,Cu2SiHgS4,-0.6342351915625004
10195,Rb2Bi(IO3)5,-1.1787128617391303
10196,NaMn3P3(HO6)2,-2.401255727159277
10197,TaAgP4O13,-2.592587096842106
10198,ErPS4,-1.3462721761805554
10199,Ca5(SiN3)2,-1.3134882496153837
10200,Te2I,-0.18489612416666676
10201,LuTl3,-0.14300345750000032
10202,CsMgFeF6,-3.188179874770115
10203,Sr5Zr3F22,-4.158921472444444
10204,AcInTe2,-1.189658803125
10205,ErAsS,-1.7020504618750003
10206,BaSbClO2,-2.5014814969999994
10207,Na2ZrF6,-3.632294241455938
10208,Ta4P4S29,-0.834332197336711
10209,SbXe2F9,-1.7231637331250005
10210,BaSi2(NO)2,-2.3416668857142855
10211,Rb2NaIrF6,-2.5547075786551723
10212,NaPd3O4,-1.078732887693966
10213,CsAuO2,-1.1381685432327586
10214,SbKrF7,-1.8778431358333334
10215,Li14P2(N2O)3,-1.3150217899333336
10216,YbOF,-3.467034719166666
10217,Ti2Tl3P5S18,-0.8436507890922625
10218,CoSO4,-1.7413966576041673
10219,CoAs3,-0.3048444693749994
10220,Cu3AsSe4,-0.38305662804687435
10221,Dy3S3N,-2.2519919727678572
10222,PtI4,-0.4330451887499997
10223,GdMgAu,-0.6793444011111115
10224,Y6TeO12,-3.545170599473684
10225,LiGa2Ir,-0.5013798070833326
10226,BaNaHg2,-0.40266304913793116
10227,BaAl2B2O7,-3.2522799052777773
10228,EuCdPt,-0.7419719524999996
10229,Li2YIn,-0.30896821333333335
10230,Cs2As8S13,-0.6265135937603077
10231,LiGdSe2,-1.936754344505208
10232,SmTlS2,-1.7167817361458333
10233,Tm2InNi2,-0.5492429206666671
10234,Ba20Ru11PtO48,-2.302246197687501
10235,Tm2CdPd2,-0.8259275626666664
10236,Er4InIr,-0.601173825
10237,Cs3BS3,-1.2524467735478244
10238,CeSiPt3,-1.0409085689999997
10239,TmGePt,-1.1277552547222218
10240,Na3As,-0.4141035753304596
10241,ThGeTe,-1.1469628433333334
10242,Rb2Sb4S7,-0.822975728221154
10243,MgZn2Ir,-0.2822420025000003
10244,Ba11In6O3,-1.1191974539999996
10245,NaInSn2,-0.13673747038793094
10246,Gd2MgTl,-0.2749877458333341
10247,KNaMg3Zn2(Si2O5)6,-3.083974559480648
10248,Na2VAsCO7,-2.1348261127586206
10249,K(OsO3)2,-1.6582724036666672
10250,Sm3Zn11,-0.3391279567857143
10251,Rb2U3(IO5)4,-2.1658545563793115
10252,LaSnRh,-0.8905187488888894
10253,Sm5Ir2,-0.5618719878571434
10254,Pr(AlSi)2,-0.3623990410000005
10255,EuSnHg,-0.5565953616666667
10256,Er2InPd2,-0.8831968660000001
10257,HoGaCo,-0.5049519783333339
10258,HfCu2Te3,-0.6611262208333333
10259,SrGaGe,-0.5400419438888887
10260,K2LiGaAs2,-0.5839367694722218
10261,GdGaRh2,-0.7545565268749996
10262,Ba2BiSbO6,-2.4530079949999988
10263,K4Sr2SnAs4,-0.6781656603333333
10264,TiAs2,-0.6359811777777781
10265,Tb2Sc3Si4,-0.8026765255555554
10266,Mg2PN3,-1.116398228055555
10267,LiB6C,-0.2443819560416669
10268,Ti2NiP5,-0.7514346076041667
10269,UOs2,-0.09118325833333311
10270,AsAuO4,-1.1668046675000003
10271,Ag2HgSI2,-0.44622193440972185
10272,AgAsPbS3,-0.5038711668402781
10273,KAlAs2O7,-2.2225039048181814
10274,TmZnGa,-0.5523000263888888
10275,Li3CuF6,-2.6114872500000006
10276,Na6ZnSe4,-1.186130767153213
10277,SrPuO4,-3.218048246111111
10278,Yb2CdSn,-0.6045533937499998
10279,Y2InNi2,-0.5197746286666665
10280,La3OsO7,-3.1709869836363627
10281,P2Ir,-0.7224334872222222
10282,MgTi2(PO5)2,-3.149609173555556
10283,SmCr2Si2C,-0.42501614916666597
10284,Ti2Pd,-0.44933218222222254
10285,MgAu3,-0.40587791937499995
10286,GdIn2Ni9,-0.21502347333333324
10287,Nb4FeSe8,-1.0786608556730772
10288,NaNd(CO3)2,-2.526117468155172
10289,YInPt,-0.9941906133333336
10290,HoInCu,-0.4126544299999995
10291,Pr(As3Ru)4,-0.46162398970588303
10292,Tb2ZnNi2,-0.4578727200000003
10293,BaAg8S5,-0.5274891099255952
10294,Ca5Zn3,-0.20085173062499995
10295,MgCd3,-0.06979741624999991
10296,USe3,-1.2862908267578126
10297,Gd2US5,-2.1359612491406246
10298,Yb3GdSb3,-1.156037379285715
10299,Y3MnB7,-0.6002243456452447
10300,CsSiTe3,-0.7229993570862063
10301,Li17Sn4,-0.3551221469841269
10302,RbTbS2,-2.0977825934375
10303,Sr3LiIrO6,-2.5118172880303034
10304,LiDy(WO4)2,-2.6636031473611106
10305,Er3TaO7,-3.887188360454545
10306,Ti4GaC3,-0.8068500263541667
10307,KTiAsO5,-2.5667814304791667
10308,LiTaRu2,-0.2029087133333327
10309,TmZn12,-0.1691891743589745
10310,Cs3Ta5O14,-3.178004400740596
10311,Mg2ZnP2,-0.5101265853333331
10312,NaMg3P3(HO6)2,-2.7199936903119872
10313,K2RbYV2O8,-2.7277496064404767
10314,Sr2GdSbO6,-3.0522504095833334
10315,Sr(PRh)2,-0.9355698546666673
10316,Sc(MnSn)6,-0.1293365578912467
10317,Cs2AgAuCl6,-1.4510213892528736
10318,Rb3NaBe2F8,-3.3021985806465515
10319,Na2CaZrSi2O7F2,-3.368771033206897
10320,V2GaSn2,-0.12490143100000069
10321,YTaRu2,-0.33616773666666866
10322,LiMgBi,-0.4067920277777777
10323,Ta9(CoS3)2,-0.9307289175735304
10324,TiNiO3,-2.596717666666666
10325,HoPd3,-0.9056830874999999
10326,TiO2,-3.5016293386111115
10327,Ba2Fe2O5,-2.2993242028571435
10328,U2Fe2Sn,-0.15103233199999977
10329,Tb11Sn10,-0.7460328488095234
10330,Sr10Mg5Mo3(WO15)2,-2.914530529533333
10331,BaBi6(PO5)4,-2.3900697884946247
10332,LuNiBC,-0.5664157422916656
10333,Na2MoSeO6,-1.89956272254472
10334,Ba2H2Pd(S5O17)2,-1.8656892904336737
10335,Cs2AgAsBr6,-1.3269293262528734
10336,Ho4Ni13C4,-0.3499493561904758
10337,ZrTe,-1.1086238900000005
10338,Ba2Zn3(PO3)10,-2.6881228862962967
10339,HgRhF6,-1.7887977224999996
10340,Na(CoO2)2,-1.4520973398645327
10341,GaHCl2,-1.0829809025000001
10342,Ba2Mg(GeIr)4,-0.6041023709090907
10343,K2Ta15O32,-3.133954290938776
10344,Ge7H8N2O15,-1.620326400468751
10345,YbAg2,-0.36042539777777743
10346,HoRh2,-0.7521117683333335
10347,TbCuPb,-0.3973038549999994
10348,Ag3PSe4,-0.34090790971354146
10349,Ba2YNbO6,-3.4489505236666673
10350,ErSiPt,-1.2046779066666662
10351,K4Nb11Al2O20F,-2.7563999814342104
10352,Y2Si3Pd,-0.896431234305556
10353,BaHg2(ClO)2,-1.6612810182142859
10354,Cs3P6N11,-0.7919373779396558
10355,Sm3(SiRh)2,-0.8645690274999994
10356,TbAgSn,-0.6038374272222224
10357,CuPH4O5F,-1.7370226875694452
10358,Li9Mn12Ni3O32,-1.9684967368780784
10359,K6Ti2S6O,-1.7746671053944445
10360,DyNiSn,-0.6717744083333331
10361,Nd3(Ga2Si)2,-0.6856457116666669
10362,Nb4GeSe8,-1.0678490656730764
10363,La2US5,-2.2461098975781253
10364,BaCrN2,-0.9856743156250003
10365,La3OsI3,-1.2292340653571436
10366,NaSrGaF6,-3.435747621746488
10367,BiTeNO6,-1.3182369408333332
10368,Li3BiO4,-1.8847122449999998
10369,PmBiAu2,-0.6099887868750002
10370,ZrP2(HO3)2,-2.533337181515152
10371,YNiH3SO7,-2.060827304983974
10372,ThSnRu2,-0.4093017987499996
10373,Na2Zn(GeS3)2,-0.9830667928957681
10374,NaCa2Mg2V3O12,-2.853448836077587
10375,Rb2NaCrCl6,-1.9893934841551721
10376,LaPS4,-1.4719425434722229
10377,BaAgTeF,-2.1865673672916666
10378,Rb2MnTe2,-0.9253781265862073
10379,Na(Ce2Se3)4,-2.0691236656988914
10380,SmNiB4,-0.5568762211111107
10381,ScZnPd,-0.7225227683333332
10382,Ba2B6PbO12,-2.9034748530952377
10383,LiCoNiF6,-2.4584347803703706
10384,TiZn,-0.1929313266666668
10385,Sc2Ni7,-0.38925856499999945
10386,Rb2LiFeF6,-2.961374463333333
10387,CoPt3,-0.053970363750000416
10388,BaLi2Si,-0.25746019291666666
10389,LiMg2,-0.05736326277777781
10390,NiGeH12(OF)6,-1.7139502480769229
10391,Nb6Co16Si7,-0.5315581296551719
10392,Hf2Co,-0.2919999437499996
10393,NiPS,-0.520934839652778
10394,La3Sb5O12,-2.6397755547500004
10395,AlFe,-0.3268933949999999
10396,BaGd2Sc2O7,-3.7783250108333326
10397,Mg3B2Rh5,-0.5631107663333331
10398,SbPbClO2,-1.7109303969999998
10399,Cs4BiSbCl12,-1.8101367531513413
10400,Yb(Al5Os)2,-0.4134593361538465
10401,In2Au3,-0.16507767999999956
10402,Cs2UO4,-3.022408663694581
10403,Na3GaB4O9,-2.642034603754226
10404,MnB4,-0.28958407991953977
10405,Pr(FeGe)2,-0.42544326300000035
10406,SnIr,-0.24298055750000014
10407,ZrP2,-0.9606213988888884
10408,KHfPdF7,-3.1440842250500003
10409,BaBiBO4,-2.6110980834523807
10410,Hf5CoP3,-1.0690826311111121
10411,CeSF,-3.236466183541667
10412,Tb2Ni2Sn,-0.585638315
10413,DyTiClO3,-3.5401086755555546
10414,Tb3GaC,-0.41693909349999886
10415,Cd3AsI3,-0.6045576428571431
10416,Ba6Tb2Ga4O15,-2.9923945957407403
10417,CF4,-2.183251392
10418,K(V3S4)2,-1.3024831318666665
10419,RbVP2S7,-0.912892486003788
10420,KRbMn2Ga4P6(H2O7)4,-2.2851920809272412
10421,GdCuSe2,-1.4729796617968747
10422,EuSiPt,-1.0015023324999994
10423,CeH14Cl3O7,-1.5759509094000008
10424,Ba17SrSm12Cl68,-2.7927693229251704
10425,Dy(PRu)2,-1.0380684713333337
10426,NaAc2Sn,-0.2785323366379311
10427,EuAgAs,-0.7762137472222221
10428,NdOF,-4.157995459166667
10429,LuAs,-1.4700408424999996
10430,Ta2Mo2O11,-2.6104309329999995
10431,Pb2OF2,-2.207768438
10432,SmBrO,-3.3109515125000004
10433,CuSn,-0.02331130750000021
10434,TiZnH12(OF)6,-1.9192110580128205
10435,Ba(CdAs)2,-0.6340791239999998
10436,Y11In9Ni4,-0.533234460138889
10437,CrO2,-2.047700861666667
10438,SrNdMgRuO6,-2.7785614916666668
10439,Ba2TaCrO6,-3.1688260297499995
10440,Dy4Ge6Ir7,-0.8756435682352943
10441,Zr6Sb2Pt,-0.7220385888888896
10442,Zn3(PO4)2,-2.373467282820513
10443,PmSmIn2,-0.4885085056250005
10444,LuPaO4,-4.206224939999999
10445,U6Al8Fe5Si9,-0.36879562249999914
10446,ThCu6,-0.14086771285714303
10447,La3C2Br3,-1.4975703435937495
10448,TmRh,-0.9808570183333334
10449,PrTe,-1.6486787425000005
10450,Yb2CdPd2,-0.7450403399999999
10451,Cs2K2TeO5,-1.7883559771862074
10452,Zr3Zn3N,-0.7988786657142859
10453,Li2Ti3NiO8,-2.9638565461904776
10454,LiSm2RuO6,-2.8291385538333342
10455,ScAl2Ni,-0.6569232937500002
10456,BaGeAu3,-0.5119620589999997
10457,Na2V3P2O13,-2.535874999488506
10458,ThSi3Ru,-0.7419701069999988
10459,KPb2,-0.17418006016666668
10460,Mn6PtRh,-0.1451400946982755
10461,TmPPt,-1.3235206533333326
10462,Cs2NaAs7,-0.3581164754913793
10463,SrMoO4,-2.665363428611112
10464,Na3AlTe3,-0.981687473165025
10465,SrAcHg2,-0.5273496697916669
10466,LiGa(PO3)4,-2.6205811199537035
10467,Ce2SiPd14,-0.5785522764705879
10468,Rb2ZnI4,-1.3634344278571422
10469,SmAsPt,-1.2232889450000002
10470,Pr3GaO6,-3.4195812757499993
10471,Gd2GeMoO8,-2.904839227083334
10472,Tl3FeCl5,-1.261149868888889
10473,YbCdAg2,-0.32122709083333323
10474,Zr(VGa2)2,-0.39963616714285777
10475,TmSiPd2,-0.9946073541666669
10476,Gd3Co4Ge13,-0.41749373175000104
10477,Ba3CaIr2O9,-2.3797676713333344
10478,Ca3Ge13Ir4,-0.427988478999999
10479,Ce(SiOs)2,-0.7177732989999995
10480,Lu2Pt,-1.0169184108333333
10481,La2Cu2I,-0.6800004970000003
10482,LuMgAu2,-0.7921068425
10483,Nd3(Ge3Pt2)2,-0.9166085519230762
10484,BaCdBi2,-0.509260485
10485,Rb2Hg3Te4,-0.6850658377777774
10486,K10In5Sb9,-0.4557702657291666
10487,NdAl3,-0.4418988250000009
10488,Cu6PbO8,-1.0374218473333334
10489,GaP2I9,-0.5182592777430557
10490,ZrCoSn,-0.4749728755555556
10491,Sr(FeO2)2,-2.1484798761309523
10492,CeClO,-3.4100520183333347
10493,Y2Co3Si5,-0.7372030588333324
10494,Sc57Rh13,-0.42035931178571345
10495,CaGa3Ni2,-0.48185687208333344
10496,Sr(GePd)2,-0.7134818633333324
10497,NaMg4(AsO4)3,-2.4189473405775863
10498,CrAuO2,-1.6227391950000003
10499,Sr3Fe3N5,-0.6171543177272748
10500,Y2Be2SiO7,-3.5686451119444436
10501,Ba2EuMoO6,-2.8682623625000003
10502,Mg5Co19O32,-1.6691399127678568
10503,LaGa2Ni3,-0.5112704366666665
10504,Li3LaBi2,-0.7332107474999999
10505,TmH2,-0.8041063322222227
10506,DyNiSn2,-0.5752295172916663
10507,Si3NiP4,-0.24289390916666775
10508,Rb2MgP4(HO2)8,-2.216752193494624
10509,CaZr4(PO4)6,-3.2508376440000006
10510,ErCd6,-0.15470440297619042
10511,Dy12Ni6Pb,-0.37609775894736835
10512,CoMoP2,-0.6271400529166673
10513,LiMnPt2,-0.4802949028160928
10514,V4Zn5,-0.04639046888888901
10515,Cs2NaUBr6,-1.9188176619913793
10516,Mn3Ge,-0.07511062719827777
10517,Ca2Ni12As7,-0.4701854316666661
10518,ZrAs,-1.1422787262500007
10519,NaZnPO4,-2.49084356748358
10520,CaIn2Ni,-0.36256139124999986
10521,Ga2(MoO4)3,-2.0327506744117643
10522,KZrCuS3,-1.507548917895834
10523,Rb2CoH12(SeO7)2,-1.3995393083770158
10524,Rb4(BSe)9,-0.774684622208807
10525,Nb5GaSn2,-0.2409262021874996
10526,Ba3Ta5O15,-3.4347631439130426
10527,VCl2,-1.5631240400000006
10528,Rb2PtC2,-0.06286787499999917
10529,TmScRu2,-0.473897302916666
10530,Ba3UFe2O9,-2.8880467143333344
10531,CoSn,-0.10842913833333394
10532,TbCuGe,-0.689097278333333
10533,AlZnRh2,-0.7893755875000004
10534,Rb2NaErCl6,-2.466950322155172
10535,BaN3Cl,-1.246649354000001
10536,RhO2,-1.2189547283333322
10537,CaAlBO4,-3.322331291309524
10538,CaGaGeH,-0.470239881875
10539,CsUCrO6,-2.7826572156034484
10540,Ba2NdInSe5,-1.8769401051909722
10541,Eu2BIN2,-1.465564383194445
10542,K2Ni(MoO4)2,-2.01739781873077
10543,Sr2BBrN2,-1.6249545033333337
10544,Ag6HgNO11,-0.5415489086842102
10545,ZrGeRh,-0.9322841883333339
10546,Cs2U(SiO4)2,-3.2002098747778507
10547,NdAl2Pt3,-1.0823108000000008
10548,Er(Al2Fe)4,-0.43142185692307594
10549,Ti17CuP12,-1.1207508403055566
10550,Lu3SnC,-0.6699337629999995
10551,K2S3,-1.0920755840750005
10552,Ac2IrRh,-0.4982599012499991
10553,Ho2As7Rh12,-0.688275922619049
10554,RbSbCl6,-1.5151070278125003
10555,U4Te3O4,-2.498041471818182
10556,Cs2RbInF6,-2.992265330836207
10557,Dy(GeRu)2,-0.6497808399999997
10558,P2WO8,-2.4105285274242423
10559,Cs4SnO4,-1.7495928715804594
10560,MgPaPt2,-0.8775711125000001
10561,Sc12I25,-1.3961635985135135
10562,FeF6,-1.599085170714286
10563,Sr2YBiO6,-2.8119475842500004
10564,BaP2,-0.8044843372222227
10565,MoI2,-0.6431208794444443
10566,Y12Ni6Pb,-0.37274952
10567,NpGa3,-0.19536619781249964
10568,MgB2,-0.13033976277777745
10569,Ce4Te3N2,-1.726249218055556
10570,MnAlOs2,-0.2612951719827592
10571,Nd(CoSi)2,-0.7332880199999998
10572,RbCr2BiO8,-1.8210940858333327
10573,MnGaH4O2F5,-2.1841709840716184
10574,Nb2Hg3S(O2F5)2,-2.5176524976562495
10575,LiAc2Ge,-0.2958586908333336
10576,K2FeI4,-1.1159899337142853
10577,Sm(GeRu)2,-0.6622579349999995
10578,U(CuP)2,-0.5505983313333331
10579,P3Pb5BrO12,-2.2681058144047617
10580,Ce(Sn2Rh)2,-0.6110029971428566
10581,LuNiSn2,-0.5141111141666664
10582,La2WO6,-3.3030955305555563
10583,Ba8Si43Ni3,-0.2162617775925934
10584,Er2(Ga3Ir)3,-0.6591112137499994
10585,Ce(Al5Fe)2,-0.35707305576923104
10586,Th3Ge2,-0.6955315280000007
10587,Ba5Mg18Si13,-0.25770407138888907
10588,Yb2Ge4Ru3,-0.5788076527777777
10589,HfZn16,-0.07251176500000031
10590,NaEuNb2O6,-3.0090454621551728
10591,Tb6InCo2,-0.2503488327777777
10592,SeCl4,-0.8347085549687503
10593,LiAl(CN2)2,-0.7169064147916666
10594,Rb6U2(Cu4S5)3,-1.0554058689107144
10595,SrCdAs2O7,-2.106939216515151
10596,Pu2SiO10,-2.547532494615385
10597,Ho2CoTe2(SO7)2,-2.3407849852976192
10598,CsSmMnSe3,-1.564945267148886
10599,Sm3Sb4Au3,-0.9359051964999999
10600,SmSiOs2C,-0.49768160600000044
10601,Ba2DyUO6,-3.6573663370000005
10602,Tl3V5O14,-2.1297173554545448
10603,Ca3Al2Ge3,-0.5330744225000004
10604,NdIn2Cl5,-1.9527873062500003
10605,Tm3Ga5O12,-2.9907310052500007
10606,U5(B12Mo5)2,-0.5567931530769232
10607,LiTa3O8,-3.2535172494444446
10608,NaLaAu2,-0.6239272328879308
10609,Ti2Se,-0.9861238599479165
10610,PuMoC2,-0.16169400687499902
10611,Yb14MnSb11,-1.051507356843501
10612,RbSnI3,-1.1522616045
10613,KP,-0.4124461081666664
10614,SrGaCu2,-0.25798779104166636
10615,K2Sr(PO3)4,-2.840730529789474
10616,NaNbFe(PO4)3,-2.6724559003639845
10617,Li2Ni12P7,-0.5803509233333334
10618,Li2VOF4,-3.0332418489583333
10619,CaGaN,-0.8433978908333337
10620,Sm15(Ni4P3)7,-1.0258403146093746
10621,La2(Al3Rh)3,-0.7947527146428571
10622,Zr(TiH2)2,-0.5732940545238095
10623,Rb2TmAgCl6,-2.1839126488333327
10624,Nb2Co12P7,-0.6475317863492058
10625,Nd3MnGaS7,-1.8280188964421693
10626,Er2Si2O7,-3.7006677268181813
10627,LaIn2,-0.5028998650000004
10628,Cs2NaAlH6,-0.31996400924137947
10629,LaTlAu2,-0.6145547870833328
10630,K3DySi2O7,-3.083767790307693
10631,RbSm2Cl7,-2.6758434440000007
10632,Er2FeC4,-0.3095978078571428
10633,SrNb2O4,-2.9885968145238095
10634,LaGaSi,-0.6949182208333333
10635,Hf10VSb5,-0.48923240375
10636,Cs5GeP3,-0.29977922607279694
10637,Ba3CeRu2O9,-2.669611771666668
10638,LiCu5F12,-1.9617529407407406
10639,Na4Ge9O20,-2.154543638369906
10640,Eu3DySb3,-1.157809140714287
10641,Ce2P3Au,-1.0413094954166666
10642,Tm2MgAl,-0.2547889683333331
10643,CsNpAgS3,-1.3555667229537847
10644,MnBPbO4,-2.216731743156816
10645,GaH3Br3N,-0.9467938787500003
10646,GePt3,-0.3104615724999995
10647,K2ZnS2,-1.2639754544500001
10648,Cs3Y2Br9,-2.2532820696161737
10649,Er5Pt4,-1.2003182625000004
10650,Ti(TlS)4,-0.9452430571296296
10651,PBr3,-0.7880529708333333
10652,GdCl3,-2.7009571625
10653,TlFe(MoO4)2,-1.829810944027778
10654,SmCuSe2,-1.468741965546875
10655,NbIr3,-0.6121027112500013
10656,Sc5Sn3,-0.6836719218749989
10657,TaCo3,-0.23870658208333376
10658,Ca16Sb11,-1.1040812433333331
10659,BaDy2O4,-3.6822960342857143
10660,K2LiRuF6,-2.6586719859333336
10661,TbYbHg2,-0.5714353999999999
10662,Na4SeO5,-1.6917302876050655
10663,La6Co13Bi,-0.17472373574999978
10664,HfCrCuS4,-1.2882528282142849
10665,GaAsO4,-1.9411355259722223
10666,YSbO4,-2.85078477486111
10667,Rb2(ReSe2)3,-0.9219886255965903
10668,SmB9(HO3)6,-2.532459185
10669,CeSbPd,-0.9974759416666666
10670,ZnAgPS4,-0.6471110371428576
10671,K2Zn(SO4)2,-2.116941113057692
10672,FeP2HO7,-2.297918305151515
10673,LiHoHg2,-0.4373885608333332
10674,YGePd2,-0.9129169841666664
10675,TmIO,-3.1046488588888885
10676,MgB4O7,-2.930230555868055
10677,Sr2Co(BrO)2,-2.3488522940476195
10678,BaAg(PO3)3,-2.626312658869049
10679,LiHfPd2,-0.629399045833333
10680,Np(OF)2,-3.419820702750002
10681,CsErCdTe3,-1.278232241321839
10682,SmS,-2.2743243890625005
10683,U(Zn10Fe)2,-0.050742699999999766
10684,NaLa2OsO6,-2.813653796655172
10685,Er2CuNi,-0.38917302750000093
10686,Lu4(Al8Pt3)3,-0.8853500332432434
10687,TiNbTc2,-0.454572245833333
10688,HoNiSn2,-0.5656752756250002
10689,K2TiF6,-3.5405283515925925
10690,ZnPt,-0.5653964449999997
10691,EuTl2,-0.3176768472222224
10692,DyZrF7,-4.235024944166668
10693,CsNaSe,-1.2444408839421695
10694,La2ZrS5,-2.293073114453125
10695,Ba4P2O,-1.5084276238095238
10696,MnIr,-0.15773385896551595
10697,CeAg2,-0.18502762777777745
10698,Sr16V12O39,-2.945555822562189
10699,Tl2CoP4(HO2)8,-1.9505916891935489
10700,Er4In(NiGe2)2,-0.7691934099999997
10701,Li2CaPb,-0.4183978091666667
10702,UPCl10,-1.682369595277778
10703,HfFeP,-1.0404003777777777
10704,Pm2IrAu,-0.7136227887499995
10705,AcTlTe2,-1.2536123689583336
10706,K2CaP2O7,-2.934418458138889
10707,Th2CuSi3,-0.6585400799999993
10708,InGaSe3,-0.8456430369062498
10709,PrCuGe2,-0.58729620125
10710,V2Hg(P2O7)2,-2.521427959920634
10711,YNi2B2C,-0.5109282141666659
10712,ThBi2,-0.5219048616666674
10713,Cs2NaErF6,-3.609765603741379
10714,As2Ru,-0.39712881999999894
10715,YbZnPt,-0.9260106849999996
10716,Ca(RhO2)2,-1.7927919242857138
10717,CsLi4(BO2)5,-2.733559966979885
10718,ErB4,-0.5858285723333332
10719,Ce(ZnP)3,-0.5878893542857142
10720,K3SbSe4,-1.0943635491718746
10721,DyAu2,-0.8652644499999997
10722,Pr4S3NCl3,-2.409781259943182
10723,H11NF8,-1.5962372758750003
10724,CaTe3O8,-1.8967812287500003
10725,Ba3(AlPt)4,-0.8629468927272732
10726,Sr2(ZnAu2)3,-0.5506340716666668
10727,PrZnPO,-1.9759212083333333
10728,Mg(CoO2)2,-1.8469125057142861
10729,Al3Pt2,-0.9943251060000001
10730,Ni5Se4(ClO6)2,-1.2676510299728263
10731,ReCl4O,-1.3345109608333328
10732,Ba5Er8Ni4O21,-3.1508534140789486
10733,ThSi3Ir,-0.8363010780000011
10734,Ba5Os3ClO15,-2.388656026458334
10735,Te3Au,-0.30209561250000005
10736,LiZr2Tc,-0.17996713333333325
10737,NbSe2,-1.1560043157291666
10738,CsTaI6,-1.0244362247413799
10739,Na3H6Rh,-0.42737024996551726
10740,Li2Nd2Ge3,-0.7039576130952382
10741,Ba2Cu3(BrO2)2,-1.7906269059090911
10742,Ca19(Mg4H27)2,-0.563982640123457
10743,Ca(CuGe)2,-0.37307010799999957
10744,Nd7Pd3,-0.4932927684999996
10745,La3Pd4,-0.8474043535714283
10746,UCoC2,-0.16002671250000056
10747,Li3H4Rh,-0.4981717487499999
10748,NdSbPd,-1.0652864516666665
10749,KTb2F7,-4.21620596705
10750,ErB7Mo3,-0.565675696060605
10751,K3Na2SnAs3,-0.4677485080114947
10752,InAgTe2,-0.49747058166666625
10753,K2Na2Sm4Nb2O13,-3.2057676462653673
10754,YRh3C,-0.48520638133333305
10755,Bi2O3,-1.6417272150000002
10756,TmCdCu4,-0.2525079427777778
10757,NaTbTl2,-0.2395437408045975
10758,NaMnO2,-2.0304508867456894
10759,KMo3Br7,-1.2256158315227272
10760,Ca3Lu2(GeO4)3,-3.120944338
10761,FeH,-0.06848167750000034
10762,Na22CaFe6P12(O8F)6,-2.5877777259909265
10763,Ba3Tb(BO2)9,-3.131236439596775
10764,Sr2CrCO3F5,-3.2385873804861114
10765,NiAs2,-0.2579881841666663
10766,Ba2Tm(CuO2)4,-2.0664708471111113
10767,PrBiPd,-0.9403090216666664
10768,YIn5Rh,-0.40945740380952345
10769,SmRh2,-0.6907956449999991
10770,Cs2PdF6,-2.41751281454023