,formula_pretty,formation_energy_per_atom
17737,LaYbPt2,-1.12966558875
17738,RbAgSe4,-0.6977532793402776
17739,Ba(AuF4)2,-2.2116659199999997
17740,Mo6PbBr14,-1.0921926083333333
17741,Ti3NbAl2,-0.3230605183333341
17742,K3U3Si2O13,-3.344825600428573
17743,Sr5V3ClO12,-3.0536677458730153
17744,BaVOF4,-3.451095696785715
17745,Na5(Sn5Hg)2,-0.1585379820740363
17746,Al13Fe4,-0.32675275764705924
17747,KSc(MoO4)2,-2.515398084833334
17748,K2CeAl(SiO3)4,-3.267759561300001
17749,Zn2Hg2H2S2O11,-1.5542356707236842
17750,In2Te5,-0.5211613847619048
17751,Li2CrO4,-2.0882741719047626
17752,BiBPbO4,-2.0944111441666666
17753,Cs8Zr(MoO4)6,-2.3027812921396995
17754,TmSeO3F,-2.827945321918403
17755,YSi3Ir,-0.7821347413333328
17756,NdSiIr,-0.9542866691666667
17757,LaUO4,-3.9177180308333326
17758,H4S4N,-0.4518360694444444
17759,Sr2CuO4,-2.1865934919047616
17760,Eu2CuS3,-1.7929733078125
17761,Ce(Mo3S4)2,-1.188971607999999
17762,MnBe2,-0.2503022593103452
17763,Al5Co2,-0.46090708178571405
17764,Ba(As3Pt2)2,-0.6636335868181821
17765,Th(SiIr)2,-1.1054213590000004
17766,Na2CuF4,-2.5035546925862064
17767,Sm3AlN,-0.8887447979999997
17768,Al9Cr3Si,-0.1794584634615378
17769,NaPb,-0.17695848921336177
17770,TlCl2,-1.2285899794444444
17771,K3Na2SnBi3,-0.36507412940038364
17772,NdRh,-0.6777160875000003
17773,PrCd2Cu9,-0.0964779487499996
17774,Cs2ZnGe3Se8,-0.8924137196151481
17775,Nd2ThS5,-2.362600239140625
17776,PrNi3,-0.2873839987499996
17777,LiFeCl4,-1.5214332434722226
17778,SrGeTeO6,-2.27352379462963
17779,DyAgSb2,-0.706687641666667
17780,CaSnRh2,-0.55110610875
17781,Zr6PI14,-1.2866633065873017
17782,Cs2TmCl5,-2.579375124378592
17783,Ba5GaRu2O11,-2.479078382105263
17784,Dy(MnGe)2,-0.4841307791724148
17785,AgBi3S5,-0.5839864802546294
17786,Nb2AgS4,-1.160975301309524
17787,SmH12(NO5)3,-1.3575509308064517
17788,PmS2,-2.0776398804166667
17789,KEuH2S2O9,-2.1533488116166666
17790,K15Re7N19,-0.4458964136585367
17791,Tb7FeI12,-1.420806932
17792,SrAl2O4,-3.459254238452381
17793,Hf2P2O9,-3.3982239470512834
17794,VPPbO6,-2.379722139814815
17795,Yb3Ni19B10,-0.42435602192708366
17796,HoF3,-4.465273261875
17797,PrCuSn,-0.5695190033333327
17798,VPt3,-0.4436207750000003
17799,MnV2TeO7,-2.1859500029937298
17800,DyPt,-1.2820415512499999
17801,K3Cu2(BiS2)5,-0.8419913860125
17802,Hf3AlN,-1.0295709439999996
17803,RbCr5Se8,-0.9161661618749984
17804,Zn4P6N12O,-0.7525898941304352
17805,CaFeSn(PO4)3,-2.651596803055556
17806,TbMgAu,-0.6834224766666664
17807,PaZnPt2,-0.7795994725000002
17808,Yb(SiOs)2,-0.6040158380000008
17809,Sr2TmRuO6,-2.8907394159999997
17810,Fe3P3PbO13,-2.291733466250001
17811,PuAl4,-0.2359400430000001
17812,LuTiClO3,-3.5473738255555545
17813,Rb7GdFe6(P4O17)2,-2.5330064535565486
17814,Ti6Co16Si7,-0.602624160000001
17815,KNb(CuSe2)2,-0.9674849927968747
17816,PrSb2Au,-0.8081591674999995
17817,Yb2AgPb,-0.5137592416666665
17818,Ho3Si11Pt23,-0.8613713850000001
17819,As2HPbF13,-2.4253222352205883
17820,Mg(BH4)2,-0.3500598898484849
17821,HfGaRu2,-0.6128478243749997
17822,GdCu4Pd,-0.33739303333333365
17823,MnAlGe,-0.20761954431034488
17824,Ba2SnSe5,-1.5118003261523438
17825,Ta3W,-0.04280474249999955
17826,ErFe3,-0.09931105166666754
17827,TiCr2,-0.10441789777777781
17828,NaLiSe,-1.3241428849096024
17829,V3Cr,-0.028530997500000765
17830,NaNi3P4H8NO16,-1.8997563063601535
17831,Nd(AgGe)2,-0.42367585466666713
17832,Y(FeSi)2,-0.6485073773333326
17833,Tm2Co17,-0.1101331685964908
17834,AcGa3,-0.5318247912499996
17835,HfMgN2,-1.65076135125
17836,HoIr,-0.8864451600000001
17837,Pr5Bi3,-0.7780731262499998
17838,KBaFeO3,-2.1672122659166675
17839,Cr4Si2Br2O7,-2.339685849833333
17840,ScCuGe,-0.6590267733333329
17841,BaTiF6,-3.976583784791667
17842,Yb(H2N)2,-0.745122957857143
17843,SnGe4Te4Se,-0.38636714073437445
17844,Ba2CdS3,-1.856262304895834
17845,ZrSiNi,-0.8861792499999991
17846,PmInAg2,-0.37233165020833336
17847,Ca2As4Xe5F34,-2.161103979777778
17848,CdSe2,-0.6476588473958328
17849,K2NbAgS4,-1.2476279450208336
17850,Cs4Fe(MoO4)3,-2.117597240586207
17851,U2(Ni7B2)3,-0.3196416322413789
17852,CdGaH14O7F5,-1.6491359342857146
17853,GdRh,-0.8023534699999999
17854,KNaSmNbO5,-3.016182417172413
17855,NaMnFeF6,-2.861994915498084
17856,NiP2,-0.3715957480555557
17857,PrAg2,-0.27749913111111074
17858,BaCoO3,-2.0528786190000003
17859,VGaTc2,-0.2377400268750005
17860,DyMoBrO4,-2.594644202857143
17861,Bi2Pd3Se2,-0.5008247335267859
17862,KCr(MoO4)2,-2.156810039000001
17863,HfMnGe2,-0.4654747721910925
17864,LiBiO3,-1.6352989334166672
17865,TaGa3,-0.1690678156250005
17866,CsScO2,-2.9798165382327584
17867,Rb3Nd2(NO3)9,-1.4704900175609747
17868,LaS2,-2.1982971287500006
17869,Eu7Au3,-0.5320780845000002
17870,Rb2MnF5,-2.97361525067888
17871,PtPbF6,-2.091036908125
17872,NdSe2,-1.9397061090624994
17873,Mn15(Br3O10)2,-1.8279638096089152
17874,Yb4MgCu,-0.12228138999999978
17875,Ba3ZnIrRuO9,-2.179144078333333
17876,ZrI2,-1.145353003333333
17877,K3Er7S12,-2.246236280750001
17878,K2Na3TlO4,-1.4634709368988503
17879,ScSi7Ir3,-0.6444665522727281
17880,Ti2MoOs,-0.40764276041666747
17881,LiScTl2,-0.25610333124999984
17882,Mg17Al12,-0.02702928586206918
17883,CoSn2H12(OF)6,-1.6897707810185192
17884,TaTe4Ir,-0.6479402166666676
17885,BaGeN2,-0.6000486976562502
17886,Gd(SiPd)2,-0.9138582759999991
17887,HoCuPb,-0.38047989333333376
17888,SrAsAu,-0.9287965205555556
17889,Nb2S3O14,-2.1951960283881577
17890,Li4Ca3(SiN3)2,-1.130086290888889
17891,Pr2S3,-2.355719752875001
17892,Er5Tl3,-0.2923150862499999
17893,KYbBeF6,-3.4170887597777777
17894,Eu2Cu(GeO4)2,-2.4091934080769217
17895,HoCuPbS3,-1.3520034748958334
17896,Al4Ge2W3,-0.09790199777777768
17897,Sb2Rh,-0.5899011783333338
17898,KPuP2S7,-1.1176529335492427
17899,LaSn3Ru,-0.5311868677500001
17900,RbTlO2,-1.324072010208333
17901,Ce2ZnSb4,-0.8105249142857147
17902,SmErMg2,-0.08460770375000015
17903,Na2Mg2NiH6,-0.3265566655094041
17904,ZrMnGe2,-0.5232867736494254
17905,SnIr2Se5,-0.6818942527148435
17906,PH6C(NF2)3,-1.554891515784314
17907,KV2PO8,-2.4958116583402776
17908,Mn3B7IO13,-2.602058373873323
17909,Mn7SiO12,-2.2368685590258623
17910,CaHfO3,-3.8209380990000006
17911,NaMn2O4,-1.980904359987684
17912,Ca2Ga2Si(HO4)2,-2.6557631643333335
17913,Ca2PI,-1.5037430245833336
17914,GdCu4Au,-0.31830519166666704
17915,H3ClO,-1.1431735779999996
17916,Sc2RuAu,-0.6800584662499993
17917,Mn2VHO5,-2.097757484401342
17918,Na2Ge2Se5,-0.8674770322024664
17919,V2Se2O9,-1.7829780176682704
17920,Ce3SiAgSe7,-1.5597902619227426
17921,NdMnO3,-2.9634796565862063
17922,Ho2Se3,-2.1620379984062503
17923,TiIr3,-0.7329248158333339
17924,Cs2SO4,-2.261607301998153
17925,Cu2Ag5Se4NO15,-0.9054980089891979
17926,K3As(PSe3)3,-0.7742410571933593
17927,KAlSi3Ni3(HO6)2,-2.437568610136363
17928,K15Cr7N19,-0.5224254778048769
17929,CaMgPd,-0.6206396674999995
17930,Nb(SCl)2,-1.4582902632499994
17931,MoAs2O7,-1.729654351499999
17932,Cs12Nb(In2As3)3,-0.43352334625615796
17933,Lu6Nb4Al43,-0.31337452433962304
17934,LaGa3Pd2,-0.7699108279166662
17935,La2MgCu2,-0.19690438299999968
17936,Rb8Zr6BBr20,-1.887637476833334
17937,Rb2NaLuCl6,-2.4680761631551724
17938,CdS,-0.8838370815625001
17939,Y5(ReO6)2,-3.32864781754386
17940,NaNi2H3(SeO5)2,-1.3647889709021785
17941,Si2Os,-0.4023047958333332
17942,GdThRu2,-0.3822232400000001
17943,Te2Pd,-0.6155769733333329
17944,Ta6Be15Cu8,-0.20134880120689685
17945,CsK2Bi,-0.3451256259827584
17946,ThCoSn,-0.5330201177777778
17947,TmCu4Ag,-0.2464270455555558
17948,TbB2,-0.5270450061111104
17949,SrSnO3,-2.637945564833333
17950,Zn10Ge(B4Rh9)2,-0.43219874171171185
17951,TiInCu2,-0.10921160333333368
17952,Sr2CrOsO6,-2.4933343578333327
17953,Tb7Rh3,-0.6017819555000002
17954,GePtS,-0.751474645208333
17955,CdB4O7,-2.6526067578472214
17956,EuH3Pd,-0.5290842659999996
17957,La23Cd4Ni7,-0.2451544738235294
17958,K2Mg2(SO4)3,-2.3793270090986844
17959,Pu(SiPd)2,-0.7137182919999987
17960,Pm2AgHg,-0.38016660916666645
17961,Zr11Os4,-0.2928709489999998
17962,CeZnPO,-1.992000449583334
17963,GeRh,-0.5451291874999997
17964,CsNpMoO6,-2.6930321490756706
17965,K2Rb4Fe2O5,-1.4586628673846156
17966,SiPb4(BrO)4,-1.850199991923077
17967,Na3CaMg3AlF14,-3.692654232029781
17968,UTlF5,-3.4501210577976194
17969,Ag2SO4,-1.2597143966369049
17970,FeGe,-0.12215191083333465
17971,RbGdS2O9,-2.1845877743269253
17972,K5CuAs2,-0.34211863624999994
17973,LiNbS2,-1.5549216636458336
17974,CaAl4O7,-3.463972205833333
17975,Ce3NbSb5,-0.9356318594444448
17976,Li3Bi(BO3)2,-2.476818496944445
17977,ScSb,-1.0308705324999998
17978,VN,-1.3420210524999998
17979,BaMg4Si3,-0.2524653612500001
17980,Na2Hg3S4,-0.7052984159003834
17981,UTl2(MoO5)2,-2.2716272783611107
17982,Ba5P4,-1.0112417442592596
17983,TmB4Os,-0.5990309334722225
17984,Sr3V2O8,-3.0184442130769233
17985,Na2In,-0.10995390228448265
17986,K2ZnI4,-1.3369275972857149
17987,TlBS2,-0.7156600034375001
17988,K2Li(H2N)3,-0.4953722647361107
17989,Sn2BF7,-2.8490435984166664
17990,Li2Pr5Sn7,-0.685086862083333
17991,Er2(SO4)3,-2.6706666665808827
17992,Ga,0.0
17993,Ho(Al2Fe)4,-0.4313870623076923
17994,CeTa7O19,-3.4140279987037037
17995,Rb4Ti3S14,-1.3385826863690478
17996,Er(Ni2As)2,-0.6269321842857148
17997,Ba2Sc2O5,-3.50744435
17998,ScCdAg2,-0.24546225708333314
17999,MnNb3(PO4)6,-2.7792648211156195
18000,VIn(SeO4)2,-1.7107624074739582
18001,Sc2Se3,-1.989459755906249
18002,HoMoBrO4,-2.5934516396428577
18003,Dy2CuRu,-0.33914492124999995
18004,NaYS2,-2.097679689867098
18005,Sm5Rh4,-0.702402444444445
18006,LiBF4,-3.2542144465277776
18007,La3Si2S8Br,-1.908337672321429
18008,Mg3(Al9Cr)2,-0.09944081108695682
18009,Ho2Ge2Rh,-0.9400148799999997
18010,Na2Zn3H4(Se2O7)2,-1.5230721687954978
18011,Gd3BBr3,-1.5257177777380966
18012,ErAl7Au3,-0.5013962422727279
18013,PrTe3,-1.3260174637500004
18014,CuAsS,-0.33926250104166716
18015,NaV4Bi13O30,-1.927600467428162
18016,Lu3Co,-0.21608869562499944
18017,Al12W,-0.08095626230769262
18018,SrTl2O4,-1.722360898333333
18019,CuPO4,-1.8794734218055555
18020,Sr2ZnGe2S6O,-1.5680600780902783
18021,YCBr,-1.2585473713888884
18022,LiLaGe2,-0.7004761820833334
18023,CeCuSn,-0.47799302666666676
18024,Li8Be6P7O29,-2.7513373306000006
18025,Na2ReO3,-2.0188495892672407
18026,Tm(AlCu)6,-0.3520410251282054
18027,Zr6Zn16Cu7,-0.24381977724137946
18028,Gd2Al6Si4Au,-0.40115958384615386
18029,Na2BiPCO7,-2.2649833776197315
18030,ErMoBrO4,-2.593224545357143
18031,CsH4NO,-0.8940598297044338
18032,Li2InFe(P2O7)2,-2.566384956818182
18033,Eu(BO2)3,-2.95795061975
18034,V4Cd3(PO4)6,-2.5471676764864872
18035,BaGaSiH,-0.4377680981250003
18036,CeMg(NiH)4,-0.35945952550000015
18037,ReBi3O8,-1.9010388814583337
18038,NpAs2,-0.5656543712500005
18039,ErSiPd,-1.0115773712499998
18040,Ca2ScNbO6,-3.5081259614999993
18041,DyClO,-3.554998416666667
18042,UMnC2,-0.1358790194827595
18043,Pr(GePt)2,-0.9188779060000002
18044,KSnAs,-0.3964002726666666
18045,NaAlSe2,-1.2661524943723057
18046,Tb,0.0
18047,LuCo5P3,-0.8543974147222223
18048,Ba3ZnSb2O9,-2.4919275890000008
18049,CsH3(SO4)2,-1.7693189904772169
18050,Sr2Mn2O5,-2.5719552776883794
18051,BaVPO6,-2.87268669925926
18052,EuBi2ClO4,-2.195155621875
18053,Tl3Bi,-0.035905428750000024
18054,Co(IO3)2,-0.972145322777778
18055,Pm2CuPd,-0.46907207875
18056,BaLaCuSe3,-1.8562639815885416
18057,TlSbAs2PbS6,-0.5569025881439397
18058,GaF3,-2.9294436925
18059,Sb3Cl11F4,-1.5718553065277778
18060,Ta2VO6,-3.1239355511111118
18061,Ba3Nb6(Si2O13)2,-3.243478071538463
18062,Na5P3O10,-2.620823450708813
18063,BiSb3F20,-2.46938920875
18064,Tm(SiPd)2,-0.892880147333333
18065,PrGePt,-1.0600312116666661
18066,Ac2CdHg,-0.36393884750000005
18067,KAlH6(OF3)2,-2.3404978530000005
18068,NdTiGe,-0.6288817211111114
18069,CdCu2SnS4,-0.6601781496874999
18070,LiCa3Si2N5,-1.3005070368939406
18071,Ba3Dy2(PS4)4,-1.4935956301333329
18072,Pr(Cu2P)2,-0.524348176666666
18073,Ce5Ge2Ir,-0.6560987359374995
18074,Rb4Th(MoO4)4,-2.4175738708000005
18075,CeSiI,-1.1701859650000006
18076,Na2PHO3,-2.161701057348112
18077,Na12Mn3S6(O3F)8,-2.360855704927619
18078,KYBeF6,-3.882851882185185
18079,NaIO3,-1.3224229763103452
18080,Ca2B3H4ClO8,-2.492020833472223
18081,LaAgHg2,-0.3853037729166666
18082,Ti3Tl3(PO4)5,-2.7802233733602155
18083,Tm(CoGe)2,-0.5972195793333335
18084,Li4CrFe3O8,-3.568193117083334
18085,RbSbMoO6,-2.039865294722222
18086,Li2US3,-1.6450731201736108
18087,V6C5,-0.5438920978787868
18088,SrLiGe2,-0.5314623643749998
18089,SmSiPd,-0.9358452611111111
18090,K2Gd2Sb2Se9,-1.3238718526395834
18091,Be2PdRh,-0.6506070975
18092,CsMnVF6,-3.1499928789846745
18093,Eu6P19Rh30,-0.880206631515152
18094,MgNiGe,-0.36861277166666656
18095,SbTePd2,-0.5666549900000009
18096,CeCrSe3,-1.4719943454062487
18097,CaGaBiB2O7,-2.6535970084027767
18098,NdB2HF10,-3.339444951309525
18099,Cs2MgH12(SO7)2,-1.733531218293937
18100,Er2(SeO3)3,-2.352124214430804
18101,Gd2CI,-0.8534903987500009
18102,VBO4,-2.5151507398611117
18103,Rb2NdBr5,-2.2139685384375003
18104,InTeCl,-1.0101611554166665
18105,Ho2Si4Mo3,-0.6496419405555558
18106,BaIn2,-0.48192191333333323
18107,NaUVO6,-2.929013112116858
18108,SrSb2,-0.7965321788888892
18109,U3TiGe5,-0.4035387331481483
18110,HgB4O7,-2.484687790243054
18111,NiH20S2(NO7)2,-1.283064417467949
18112,Ca10P6CO27,-3.2536417562499995
18113,Ba2InBiSe5,-1.4709585568576387
18114,TiTl2O3,-2.2571470379166674
18115,CsFeH4Cl3O2,-1.4928562895846396
18116,SrEuTl2,-0.4210529495833333
18117,Y2B6Os,-0.6424143417592584
18118,Sb3IO4,-1.5861158148437502
18119,Bi2TeO6,-1.6169185522222227
18120,Sm5Ge3,-0.7402710062499995
18121,Tl5Se2I,-0.6161374914192708
18122,PuH8(SO6)2,-1.7680727612500007
18123,Pr4Te3N2,-1.711501633888888
18124,Ba2(AlAg)5,-0.27956291694444485
18125,BaHg3,-0.4386671325
18126,B2Se3O10,-1.6545368825243059
18127,Sc2Si2O7,-3.6074464795454544
18128,Cu4Ag(AsO4)3,-1.2728521963333335
18129,Ga3Re,-0.09454615374999964
18130,TmZnSn,-0.535010752222222
18131,Nb2Pb2Se4O15,-1.891284144538043
18132,NaPmHg2,-0.36884728351293083
18133,HoCu,-0.2667799050000008
18134,Ta2Br5,-1.2896818594642863
18135,H6CN3Cl,-0.5634340361363634
18136,Mo2NCl7,-1.2355012682500004
18137,PrTa7O19,-3.41980133037037
18138,HoAlAu,-0.7953743216666668
18139,Y10Cd3Pd,-0.3052712469047622
18140,Cs3CdH5,-0.2513732298659007
18141,CsAu(SO4)2,-1.6903637501400859
18142,La2HfSe5,-2.0694070205273443
18143,Ho4In(NiGe2)2,-0.7739252354545453
18144,Dy4MgIr,-0.4313962004166676
18145,K3W2N5,-0.6670205804000006
18146,LuPaTc2,-0.2493609449999994
18147,Li2Al(BO2)5,-2.9136752201388894
18148,TbMgTl,-0.33219004888888887
18149,BaTiSe3,-1.7701696640729168
18150,BaMnP(O2F)2,-3.037777788473819
18151,Lu2CCl2,-1.8187212539999997
18152,PmAl3,-0.4459896668750005
18153,La2BiN,-1.3513638275000002
18154,CsCr3O8,-1.9435025227442526
18155,Rb3VS4,-1.4252510015624997
18156,RbZrMnF7,-3.572042809293103
18157,K3HoCl6,-2.49156908215
18158,Zr4Ir2N,-1.1160482625000014
18159,Lu(SiOs)2,-0.6998381519999995
18160,Cs4Sr(SnSe3)3,-1.2131421561461508
18161,Li9Ge4,-0.3447264142307691
18162,Er2P7Rh12,-0.9209150696825402
18163,Dy4CdRh,-0.4910273429166665
18164,ZrZnF6,-3.507390691875
18165,Ba13Bi11O36,-2.2586640075000015
18166,SmMn2SiC,-0.44322656417241574
18167,LuInRh2,-0.8214284549999995
18168,ZnSb2(XeF4)6,-1.6490760690909094
18169,BaPd5,-0.3390882133333329
18170,TaTe4,-0.6018924906666674
18171,KRb2GaF6,-3.07009609605
18172,Cs4CdNi3F12,-2.637500997586207
18173,NdPO4,-3.4501902430555553
18174,Sr3(FeO3)2,-2.5155746600000004
18175,RhF6,-1.6087025535714292
18176,Hf4Co7Ge6,-0.5922737755882352
18177,Dy4Ga12Ni,-0.5709132988235289
18178,Ca5P12Rh19,-0.9282906855555564
18179,Ba2Zn2Cr7Ga2(SnO11)2,-2.3902607017567576
18180,Ta5S8,-1.358613145
18181,AsI3,-0.48132079625000035
18182,Al3(Ni10B3)2,-0.4028855818965524
18183,Tl2Mo3SeO12,-1.7270990366116905
18184,Cs5Ti6AgSe27,-1.1719249274257209
18185,Ca(BeAs)2,-0.6108375260000003
18186,PrSiPd,-0.8933568933333321
18187,BaCa4(CuN2)2,-0.756654069318182
18188,Be3Rh,-0.44213816500000025
18189,Ho2WO6,-3.3208169955555564
18190,Hf2FeIr,-0.67099157
18191,Sc(IO3)3,-1.4334638261538468
18192,KBiS(ClO2)2,-1.932754406513889
18193,ZnGa11Co4,-0.2679767507812496
18194,K3NdV2O8,-2.7050525349285723
18195,NaTmO2,-3.2165847408045973
18196,K2AgBi,-0.33395293066666687
18197,ScAl,-0.4467485224999992
18198,BiP4HO12,-2.4114838476851848
18199,NaLaO2,-3.040621341637931
18200,Ca(AlGe)2,-0.39084084000000063
18201,Nb2PC,-0.7494064495833328
18202,K2VCuSe4,-1.1417713544218753
18203,Hf2Ag3F14,-2.855437836052632
18204,Sr2LiTl,-0.23576360500000004
18205,CaNi2,-0.18914730833333357
18206,Sr(CuAs)2,-0.5130712513333335
18207,K3SnSe3,-1.2035168919330361
18208,Mg3NiO4,-2.6055150250000003
18209,ScTaOs2,-0.5322500437500004
18210,LiZrPt2,-0.8733546158333336
18211,Ba2HoB2ClO6,-3.3311633794444444
18212,EuCoO3,-2.212539032000001
18213,LiLa4AuO8,-3.1522000566666657
18214,Cs3SnPSe7,-0.9859252315443913
18215,BaSn(PO4)2,-2.830353006805556
18216,DyGaCo,-0.4969927441666666
18217,NaAc2Pb,-0.2050650153879312
18218,Tl2GeTe5,-0.413613129895833
18219,Na5Dy4Si4O16F,-3.3242322181752875
18220,CaEu2(GeO3)4,-2.5900798860526315
18221,Li2TlAu,-0.39043445750000005
18222,GdAl4Ni,-0.556520615833333
18223,BaDyFeCuO5,-2.481548387222222
18224,Tb3Zn11,-0.3424293699999999
18225,Ho2GaNi2,-0.5864738234999998
18226,BiBO3,-2.2904667498333326
18227,SmCo9Si4,-0.4652101014285707
18228,Sc6FeTe2,-0.7170975299999998
18229,Hf5CuSb3,-0.5440968772222227
18230,Sm(Al10V)2,-0.1983371260869571
18231,Tb(Cd10Ni)2,-0.08501916739130444
18232,Er3Sc2S7,-2.2948949784895825
18233,Eu(Al4Fe)2,-0.3692200724999999
18234,CuAsPbO4,-1.5037404307142848
18235,Ba2ZnCu3F14,-2.6204658610000005
18236,Ce2WC2,-0.27513451099999886
18237,AgAsF6,-2.2061453108333335
18238,ZrAlNi,-0.6447182466666672
18239,Cs2MnCl6,-1.8649531115325668
18240,KBiPb,-0.29072088099999976
18241,Ta2CrB2,-0.7038414906666659
18242,RbAgO,-1.003153564722222
18243,Lu6Ta4Al43,-0.287484365566038
18244,PaAl3,-0.26498453625000007
18245,Li2U3V2O15,-3.075205634621213
18246,Hf2Rh,-0.6140489191666667
18247,Ba3EuRu2O9,-2.484605214333335
18248,Sr2TaInO6,-3.101773858833334
18249,ErFe5P3,-0.7483730411111098
18250,Na2GeSe3,-0.993595132939116
18251,Tb3CuGeS7,-1.7336738893229164
18252,Rb4Ge3B6O17,-2.5607740631666664
18253,TiVO3,-3.000208739666667
18254,Ba6Ti2Nb10Si8O51,-3.2765780269047626
18255,CsAgO2,-1.011737821149425
18256,YVO3,-3.274201981333335
18257,SbClF8,-1.9792941639999995
18258,Eu3(Ga2Ge3)2,-0.4291926476923082
18259,RbNiCl3,-1.5515030134999996
18260,YGe2Pt,-0.8674982341666659
18261,Hf6Ga2Co,-0.38688457333333304
18262,CsGeSbO5,-2.088078680757005
18263,ErCoSi,-0.7240253858333325
18264,YAl3(BO3)4,-3.2461767756666666
18265,Dy3PbC,-0.5391069219999991
18266,PbF3,-2.4446134962499997
18267,Y(GeRh)2,-0.8859263813333328
18268,La(Al5Ru)2,-0.5215313173076919
18269,MgSiIr2,-0.5464952350000001
18270,YbHCl,-1.8470695866666667
18271,NbAlCl8,-1.8379665195000001
18272,LiB5H2O9,-2.5738313895098033
18273,Ta3(CuS3)2,-1.1740194194318176
18274,RbPrSe2,-1.9576449342968743
18275,RbAu(SO4)2,-1.6817518669791667
18276,Cs2TcF6,-2.857664941206896
18277,ZrCdPd2,-0.5867681949999994
18278,CaTlBr3,-1.917492163166667
18279,TaTiB4,-0.8828470583333328
18280,Hf3Zn3N,-0.7734316632142862
18281,SiP,-0.13522905916666753
18282,CeNiSnH2,-0.6012743999999998
18283,CaPPt,-1.1363215577777777
18284,TbBe13,-0.18524022928571476
18285,CeSi2Rh3,-1.0150820108333332
18286,MnNiO3,-1.6192723405862068
18287,Li2Th(AsO4)2,-2.5440338012820516
18288,TbMoBrO4,-2.5958852878571435
18289,B3Os2,-0.25357833049999956
18290,Be17Os3,-0.2725087528750002
18291,Nd2Ni7P4,-0.8453773410256411
18292,CsCaCO3F,-2.783673880299671
18293,Eu2ZnWO6,-2.611538104000002
18294,AlInCl4,-1.7509152108333332
18295,Sm10As8Au3O10,-2.447623235806452
18296,KAg3Se2,-0.5748478212812499
18297,Sc2V3Ge4,-0.6249022819444442
18298,Tm3(Al3Os)4,-0.5806815181578944
18299,Cs4P2Se9,-0.971561460965637
18300,Tl3AsS3,-0.534117186875
18301,V5S4,-1.1373606925000008
18302,KMgH3,-0.35731932159999963
18303,Ta4Co4Si7,-0.6012419733333341
18304,CsNa3U4(MoO10)2,-2.9502450149195405
18305,DyRu3C,-0.2154381090000001
18306,SrAcZn2,-0.23175669729166692
18307,K2SnO2,-1.6923930367000004
18308,TmNiC2,-0.34858700666666564
18309,Na2Mg(CO3)2,-2.2558747311912226
18310,Rb2Ti(GeO3)3,-2.4172556303333335
18311,AlHg2SbCl4,-1.2887313698437501
18312,Ca9B2(CCl2)4,-1.5772946364492755
18313,Cs2Sb8S13,-0.7132235687603072
18314,TbGa3Os,-0.4875067414999999