,formula_pretty,formation_energy_per_atom
13091,CsEu(MoO4)2,-2.3537909173275864
13092,Sr4Al6TeO12,-3.3520084207246374
13093,YIO,-3.0627432622222215
13094,TmNi2,-0.4974200138888894
13095,HoSiPd2,-0.9880398056250002
13096,TlHgCl3,-1.145162909666667
13097,Ta6Zn7,-0.08599111923076919
13098,U6Fe30P19,-0.7195662522424238
13099,Er5Ge3,-0.8024571637500006
13100,Ba13Ca2Re9(ClO15)3,-2.7816656691666677
13101,Na3AlP2H2O9,-2.5449735550777564
13102,CeCl3,-2.70678602875
13103,NdHg3,-0.39856144250000014
13104,Cs6Na4Tl13,-0.13896715291854078
13105,BaCdSnS4,-1.2866253910714285
13106,YbSbPt,-1.0141474199999998
13107,Sm12Co6Pb,-0.19600129052631582
13108,Mg149Pd,-0.03424278793333315
13109,K2ZnP2O7,-2.5990561850138882
13110,LaIn5Ir,-0.40423621499999995
13111,TaNbRe2,-0.342587377500001
13112,TlSnF3,-2.3572278289166664
13113,PrInAu,-0.7221929116666664
13114,SmHfF7,-4.313382713055555
13115,Pr2InPd2,-0.7908647449999997
13116,Bi12Rh3Br2,-0.3191957317647064
13117,TbAl7Au3,-0.5147635386363635
13118,Ba3LaIr2O9,-2.4947391073333347
13119,YHoIn2,-0.46729516166666674
13120,Eu5Pt4,-0.894904224166666
13121,Re3Ir,-0.10583553624999986
13122,Rb3BiO3,-1.6211958614285717
13123,La8Sb2S15,-2.1135150111749987
13124,K6MnSe4,-1.2156723445732753
13125,KMnP,-0.4252086280881227
13126,Y3Sb5O12,-2.6504382695000004
13127,ErCr2Si2C,-0.43052799166666605
13128,K4PH5S3O16,-2.0257072589554594
13129,NpB4,-0.418896936083334
13130,Zn2As2O7,-1.7480578069318178
13131,Sm3In,-0.26875467124999997
13132,Nb6V3Ni3C2,-0.3242650732142849
13133,YbScRh2,-0.8278762537500004
13134,RbBO2,-2.622254900833333
13135,Cs7Mo8AsO30,-2.103062239413418
13136,Sc2C,-0.4232954633333333
13137,DyZnSi,-0.6055602499999999
13138,Pr3IrBr3,-1.6438321621428567
13139,Na2BeO2,-2.1788806703706896
13140,Tb8Ni18P11,-0.981428152612612
13141,NaTlPd2,-0.19085049497126416
13142,Cs2Si2Se5,-1.1223701366756462
13143,Ti3SnH,-0.43105062200000005
13144,NaTaN2,-1.0810528341379317
13145,Tb3BWO9,-3.382787867440477
13146,Na3B2PO5F4,-2.9237808269214556
13147,PuP2H6(CO3)2,-1.6656543287745098
13148,Nd2TlAg,-0.3246548200000001
13149,Rb3Cu2Cl7,-1.6116290756250002
13150,CsSb3F16,-2.7273950700840515
13151,K3Fe5(PO4)6,-2.435814024973684
13152,SiPt,-0.6286731200000002
13153,Cs3TiF6,-3.2641151632126437
13154,NaHoTl2,-0.22587382580459758
13155,Ho2TiO5,-3.8943269972916674
13156,Ti5MnSb2,-0.4632173786997127
13157,YMnO3,-3.036007329252874
13158,Tm5(Co2Ge5)2,-0.6462980778070175
13159,LiGaCl4,-1.783562513472222
13160,KYbP2O7,-2.8515404801969693
13161,Pr8Br13N3O,-2.3047530822999995
13162,Li2TlBi,-0.3750295400000003
13163,ThO2,-4.367790173333333
13164,Yb3In3Ge2Au,-0.6213045711111111
13165,PRh2,-0.7432820877777774
13166,Cs2ZnBr4,-1.7830859251231526
13167,ZrHg3(SBr3)2,-1.108622108854167
13168,Zn3(SnRu)2,-0.1867476250000004
13169,Ho6Al43V4,-0.31110161094339644
13170,Sr2MnNbO6,-2.9954488211264376
13171,RbEu2Cl5,-2.6694111203125
13172,DySnPt,-1.089634538333333
13173,YbAg(WO4)2,-2.145593100555555
13174,Rb3InS3,-1.258399709553571
13175,Ho5P12Ru19,-0.8623876148611108
13176,Na9Fe2P4HO18,-2.404518360361732
13177,CoH2SO5,-1.6110432072916667
13178,Ce7Ir3,-0.5297283929999992
13179,Yb5Au3,-0.8092374031249996
13180,Ta9(FeS3)2,-0.9241571628676465
13181,Pr3HfSb5,-1.042203836666667
13182,Ca4Ta2O9,-3.486435897333335
13183,SrCu9Si4,-0.19982385904761912
13184,ErSnGe,-0.5998341366666669
13185,Ta6Pb4O19,-2.896824129310346
13186,LiY2Ir,-0.5633477116666663
13187,Ca(GaS2)2,-1.405105390892857
13188,AgHg2AsO4,-1.0586221489583325
13189,PrAg(WO4)2,-2.356699726805555
13190,Lu(CoB)4,-0.5273359468518516
13191,Ta3FeS6,-1.2901693733750008
13192,YU(CuSi)4,-0.4044386126666666
13193,Ce2Ga12Cu,-0.3360354446666662
13194,YbAu2,-0.811231003333333
13195,Tb7RuI12,-1.4500811752500007
13196,BaNa,-0.02099958035919573
13197,Cr(Bi7O12)2,-1.672403235128205
13198,Mg5(Si8Pd5)2,-0.4326546019354845
13199,PrGaPd,-0.8203325791666659
13200,NbZnRh2,-0.4640714975
13201,Sr2P7I,-0.7094368811666669
13202,GeBr2,-0.92799395375
13203,Nd3CuSiSe7,-1.632455100950521
13204,SCl4,-0.6382860279374999
13205,Ca5CdCu2,-0.18449599812500006
13206,Bi2(SO4)3,-1.8639669658455882
13207,NaLuCl4,-2.5339608856752873
13208,K(WO3)6,-2.2238535781200004
13209,CsV3(SeO6)2,-1.9898029937565862
13210,BaCdGe,-0.46469362333333325
13211,NbSiIr,-0.859301036666667
13212,Ti,0.0
13213,Er5(In2Pd)2,-0.6883988904545452
13214,Sc44Ir7,-0.37239727009803875
13215,GdSnF7,-3.5402292122222225
13216,CsSmGeS4,-1.5637889964901472
13217,Gd2Cu(SeO3)4,-2.1084665244407903
13218,HfSnRh,-0.727332137222223
13219,Ho5(Co2Si7)2,-0.6150725136956522
13220,NdNi5,-0.27575277500000084
13221,NaYbSiO4,-2.904217671650246
13222,DyMgCd2,-0.3066305974999999
13223,TbBiRh,-0.7467208766666675
13224,Rb2LiTiF6,-3.3189796586666667
13225,Pr8C8Cl5,-1.1079908364285707
13226,Lu5(Si5Ir2)2,-0.8465208884210526
13227,Cu5Se4(ClO6)2,-1.0773478577989124
13228,Cd41Ir8,-0.05860948224489805
13229,Ba7(BIr)12,-0.4888528529032251
13230,RbHoP2O7,-3.1504621496969687
13231,B10H13I,-0.203659707673611
13232,CaPmCd2,-0.36125065187499983
13233,Er3Os,-0.2924942462500004
13234,Mg149Mn,-0.01183556538620697
13235,Co8Cu7(MoO4)12,-1.6228674990666674
13236,CsZr2Al(PO4)4,-3.1703446982818484
13237,MnBe4Al,-0.17140378965517242
13238,NaPr(CO3)2,-2.5259639991551723
13239,AlMoP2O9,-2.716891426282052
13240,Pr5Ga3,-0.43748793249999984
13241,Nd2O3,-3.7815490305
13242,K2Na4Co2O5,-1.4642691451697625
13243,Cs3(Na13In24)2,-0.14075207765114217
13244,BaCuSb,-0.7579427049999996
13245,RbPO3,-2.6790238654166663
13246,P2Pb3S8,-0.7387179541666663
13247,Ho(CuSi)2,-0.5604169220000003
13248,LiTaF6,-3.5832772722916664
13249,Na2Er2B2TeO10,-2.863118299202164
13250,Dy3B7W,-0.5861135153787868
13251,Sc3(CuSi)4,-0.5924382095454548
13252,ErMgHg2,-0.4445683199999999
13253,V2CrOs,-0.29783849875
13254,TmZn3,-0.3568904810416669
13255,Rb2AgPdF6,-2.1718354246666665
13256,Sc2FeB2Rh5,-0.7193548108333345
13257,BaLi2MnV2O8,-2.6072545142569794
13258,RbPbBr3,-1.6124249930000005
13259,AuF5,-1.1306788954166669
13260,Th2Ga,-0.36660784750000036
13261,La(Ge3Pt)4,-0.4132782802941172
13262,GdTiCdSbO7,-2.786909697121212
13263,Ce2Ga7Pd,-0.6047951452500001
13264,CsZrCuSe3,-1.3528005999937143
13265,NaLi2BO3,-2.469832115162151
13266,Cs4PbBr6,-1.878982750611285
13267,PaInAu2,-0.41434106500000034
13268,YMnB4,-0.6450356414607276
13269,Nd2CdIn,-0.41220152499999996
13270,KNd(MoO4)2,-2.5128737665000003
13271,HoPd3S4,-1.1291058240624992
13272,Nb3VS6,-1.4619936103750006
13273,HoSnPt,-1.0890596094444445
13274,LiMn9Se10,-0.6749600554075073
13275,Sc3Mn3Al7Si5,-0.49914562271072704
13276,HfSi,-0.7825321449999993
13277,Al2Cd3(GeO4)3,-2.277455590375001
13278,Rb3YF6,-3.5240601994166667
13279,UCoNiGe2,-0.3845632040000012
13280,KNd2NbO6,-3.3631094343
13281,BaNdCuBO5,-2.84010233712963
13282,Dy4CdIr,-0.5259681179166673
13283,Np2Se5,-1.3110176127455364
13284,DyGe,-0.8696388224999998
13285,Mg2ZnB2Ir5,-0.46029186333333383
13286,CoAg(NO3)3,-0.8516667574404764
13287,Ce(SiPt)2,-1.0939926299999996
13288,SeOF2,-1.774278417460938
13289,La3In4Ge,-0.5919492481250006
13290,Ba4Sb2O9,-2.6492880556666676
13291,BaSn3Pt,-0.6812307630000006
13292,Th3Pd4,-0.8234484599999996
13293,VP2PbO8,-2.5218908057638885
13294,CrHgF6,-2.3108916575000005
13295,Li2ZnSnS4,-1.1501380311458331
13296,Ca5VN5,-1.2423537111363652
13297,Cs3Re3(SI)4,-1.2406822525923644
13298,Li5GaO4,-2.237720037416666
13299,Xe,0.0
13300,HoCo2,-0.22340779166666755
13301,Y2MgGe2,-0.7942071506666665
13302,Nd2TeO6,-2.947877002222223
13303,PmDyIn2,-0.4731792068749998
13304,DyLuAg2,-0.338333355833333
13305,Gd(GeRh)2,-0.8903632279999997
13306,Ce2Zn5Sn,-0.4681761887499998
13307,Tb2(Ga3Ir)3,-0.6783695512499998
13308,BaNa2Mg(PO4)2,-2.9630317421264363
13309,PaTc2Ge,-0.2588222562499993
13310,TcBr3,-0.7887535687499998
13311,Tb6Al43Cr4,-0.27141932066037716
13312,Ta5Ge3B,-0.4475067426851843
13313,DyAgSe2,-1.442293360338541
13314,Ca2CdPb,-0.5018192749999999
13315,Li2ZnSi,-0.26769586979166693
13316,K4Br2O,-1.7111232702857144
13317,CaPSe3,-1.169126768072917
13318,Gd2Be2SiO7,-3.5441266475000006
13319,YP5O14,-2.826681562041666
13320,V5Se8,-1.006241080673076
13321,CdCuF4,-2.155964753333333
13322,P2Ru,-0.6092420272222215
13323,Na2CdSnS4,-1.0364807175754311
13324,InCuGeSe4,-0.6304499191964287
13325,GdTl(WO4)2,-2.4885439665277773
13326,Ga3Fe,-0.23825033374999993
13327,Ho3(CuGe)4,-0.6271290545454543
13328,GdP5O14,-2.814552344083333
13329,HoTc2,-0.2049529383333327
13330,CoI2,-0.25005199500000036
13331,Bi2SeO2,-1.35078856646875
13332,Rb2Zn3(P2O7)2,-2.5359686957971013
13333,Ba2GaSbS5,-1.5618409106249997
13334,Na4Ga2S5,-1.2395231376665359
13335,LaB2Ir3,-0.6500047488888884
13336,Y4RuI5,-1.2917481751666677
13337,PmYIn2,-0.49184277104166707
13338,CeCdAu2,-0.5802800912499997
13339,Dy2(Ga3Ir)3,-0.6721340387500001
13340,Sr2TlHg,-0.48693283541666665
13341,Rb3Os2Br9,-1.172086878571429
13342,Zn7Tc,-0.06601303000000014
13343,Zn2SiO4,-2.447124011428572
13344,Ta2Co3Ge,-0.3378443949999988
13345,Sc2(SO4)3,-2.5796752214338246
13346,Ca3PI3,-1.6839227801190475
13347,Pr6Ni20P13,-0.8531847954700854
13348,Mg4As6Rh7,-0.6405124388235292
13349,Sr3(CoO3)2,-2.3213977609090906
13350,Pu5Ir3,-0.4294517156249995
13351,Pm2CuAu,-0.46577841124999964
13352,K2VO2F3,-2.803736020125
13353,Er10In20Ni9,-0.4189260051282053
13354,Ni10Sn5P3,-0.38378412500000064
13355,Al9Ir2,-0.5249589100000004
13356,Sm6Al43V4,-0.3049733958490568
13357,Ta4FeTe4,-0.5748171183333347
13358,Lu2Te3,-1.5944358230000006
13359,NdMgPd,-0.6525951355555554
13360,Ca2FeIrO6,-2.24188492325
13361,Li2CdSn,-0.32264944291666664
13362,Ce2Mn(SeO)2,-2.6183334289455047
13363,K2La2Sb2S9,-1.441246743275
13364,CaLaTaFeO6,-3.2234543122499995
13365,K3B(SO4)3,-2.2158227381600875
13366,Mn(IO3)2,-1.1650029997701152
13367,Pr6Cd4Pd13,-0.7324021199999996
13368,ScPd3,-0.8555836812499997
13369,Al2Cr3CuS8,-1.109612782500001
13370,Gd2Fe17,-0.005728207105263257
13371,KRuF6,-2.4423856916249997
13372,Na3MgC2ClO6,-2.246912814781168
13373,Y5Ge4,-0.8804900934259265
13374,CaB3H3O7,-2.495644618392857
13375,DyMgGa,-0.49202789027777727
13376,Yb4Sb3,-1.0644687907142856
13377,ThRe2SiC,-0.4676530679999999
13378,DyAl3,-0.42873350499999985
13379,NaTeF5,-2.68295562450739
13380,Ba3NaRu2O9,-2.2562648691034486
13381,SrZnGe,-0.5078385838888888
13382,Gd3As5O12,-2.5395729742499995
13383,YbErHg2,-0.56348967
13384,Na2W2O7,-2.2303370157366773
13385,DySiPd2,-0.9836978587499994
13386,LiLuTl2,-0.283863475
13387,Ba3HoIrRuO9,-2.5954692960000005
13388,CeCuPb,-0.2969753983333329
13389,GdAlSi,-0.5986516399999999
13390,EuBrO,-2.7183699458333344
13391,NdPb3,-0.3782386249999994
13392,SrPmPt2,-0.8998174610416667
13393,LiMg2Cd,-0.16062364583333322
13394,SnPt,-0.5723780574999999
13395,Ba2V4Cd3O15,-2.4086202730208335
13396,Cs2TlCl5,-1.7712121580244256
13397,La4Re6O19,-2.68701834224138
13398,TbGdIr2,-0.7734817925000002
13399,AsPd5,-0.2700204958333323
13400,Y2S3,-2.3760403035416666
13401,ZnBiF6,-2.4807297143750002
13402,KSi5N7,-1.20570966551923
13403,Ba8Ce3(SbO6)4,-2.992391126794871
13404,HoPS4,-1.3551586309722221
13405,Eu2PCl,-1.7615101508333328
13406,Mn4Si7,-0.38767832561128623
13407,K2NaAlF6,-3.450886308755172
13408,NiCl2,-1.0365844300000002
13409,Pr2USe5,-1.935628420527344
13410,KBrF4,-1.9781205684166665
13411,BaLa(SbSe3)2,-1.3794746769062507
13412,Rb3LuO3,-2.2653892774999997
13413,LaSbTe,-1.4859757366666677
13414,K2TiHF7,-3.241581045166667
13415,Ba2YbReO6,-2.9938224024999998
13416,Na2CaSn2(GeO4)3,-2.311013792780172
13417,Ba3(NaSb2)2,-0.8939182470114938
13418,Cs2CaF4,-3.4774863094088673
13419,Tm(CuS)3,-1.0609178287202385
13420,Zr5GaPb3,-0.4065254580555554
13421,Si(NiO2)2,-2.1141111849999996
13422,Nb6Si7Ni16,-0.5768840517241368
13423,K2MgH8(SO6)2,-1.8416825704899997
13424,Er2AgRu,-0.3962853479166659
13425,RbTiNbO5,-3.1051987529166674
13426,HoCuSn,-0.5962703133333331
13427,EuAl2Ge,-0.43594179187499993
13428,NbCr2,-0.02946737999999982
13429,KTiPO5,-3.0518586444895837
13430,Ba2Tl2O5,-1.9667117004629628
13431,Tb3AlN,-0.9736027910000005
13432,ZrMoP,-0.9833737511111104
13433,KDy(SeO4)2,-2.0138056790781245
13434,Cs2Ti2S9,-1.3263665885118257
13435,DyMn2SiGe,-0.558855012172414
13436,Ba(AuO2)2,-1.4456374999999997
13437,Bi4Br2O5,-1.6132516881818184
13438,Na4Al3Si3B(HO3)4,-2.5741349244582805
13439,Sr(GaO2)2,-2.6394816686309523
13440,K2LaP2Se7,-1.178077328881076
13441,Pr5Ir2,-0.483633370714286
13442,CaVNiP2O9,-2.705918520833334
13443,Na7In3Se8,-1.1224694658117818
13444,Eu(In4Rh)2,-0.3532864072727271
13445,K2RuO4,-1.7199757547857135
13446,Nb5Ge3,-0.4799781887500014
13447,NaNdMnWO6,-2.6590967989482754
13448,K6U2(Cu4S5)3,-1.0482454966392847
13449,Nd(AsRh)2,-0.9253519999999995
13450,ErAgSn,-0.5687740105555553
13451,Ba2LuReO6,-3.0833403035000004
13452,EuGe3Ir,-0.5946798040000004
13453,TbSi,-0.7890883275
13454,Li6Eu(BO3)3,-2.708752569210526
13455,TmCuSn,-0.5268753205555553
13456,ScCd,-0.2901624574999997
13457,CsDy(MoO4)2,-2.548854643994254
13458,Pm2CuNi,-0.2119964787500006
13459,HoAgS2,-1.5724861794791662
13460,HgPS3,-0.48748707654166734
13461,Li10Ge(PSe6)2,-1.0498644415250005
13462,U2Fe12P7,-0.6806714901587305
13463,K2Mn3(AsO4)3,-1.9831714729896546
13464,Ba(BIr)2,-0.49895365566666783
13465,YPaRu2,-0.38364470666666683
13466,K3(CuO2)2,-1.3706832637777775
13467,YSnAu2,-0.6922789754166665
13468,MnGaIr2,-0.35509031635775923
13469,Sm(SiRh)2,-1.0751341729999992
13470,Tb5(In2Pt)2,-0.8082823481818182
13471,Bi(BO2)3,-2.5770101617500005
13472,Li3Eu3(TeO6)2,-2.4972125574999993
13473,MnCu2SnS4,-0.6560257231788791
13474,Hf5Si3N,-1.081159467222223
13475,Al2(FeSi)3,-0.45395453062500035
13476,Ga3Tc,-0.05731989312499941
13477,CsErZnSe3,-1.6457234724937144
13478,BaP4O11,-2.773797480833333
13479,LaTmS2,-2.3063291369791665
13480,SmTl(PSe3)2,-0.92594243590625
13481,CsTh3F13,-4.349335412966532
13482,ReSi2(PO5)3,-2.6641733699999994
13483,Ca2GaPt2,-0.9712036635000004
13484,LiFe(CO3)2,-1.9152666978333328
13485,YCo5P3,-0.8391728879629644
13486,NaMnPO4,-2.575091185045157
13487,Ba2MnO3,-2.5622827275718385
13488,Tm5Ge4,-0.8405569350925922
13489,K3Zr6BeCl15,-2.0781986203600002
13490,HoTiGe,-0.6930816111111113
13491,RbCuO,-1.188898820833333
13492,Fe(SbO2)2,-1.7078403925
13493,Sr3V2O7,-2.9679310295833337
13494,DyAl4Ni,-0.5528359466666674
13495,Na(CoO2)3,-1.3732964091551723
13496,Ce2C3,-0.2567732739999983
13497,Li2PmPb,-0.33803024354166666
13498,Rb2PrI5,-1.7335143990625
13499,Rb3H(SO4)2,-2.111943954910714
13500,IrF4,-1.7140160530000004
13501,Na5SrTaP4,-0.610286392068965
13502,K5Li2PrF10,-3.3425349648148153
13503,Ho2B6Ru,-0.6902761036111108
13504,Rb4CuSi2O7,-2.3968604403571425
13505,YU2O6,-3.8698782740740745
13506,HoCoC,-0.3285533766666677
13507,YCrTeO6,-2.5356030801851848
13508,Ta6Si7Ni16,-0.6040232093103447
13509,CeSnPt,-0.9855186416666655
13510,Li5Tl2,-0.23627890761904752
13511,U(BiO3)2,-2.5528484644444447
13512,CeTmIn2,-0.38732154791666673
13513,Eu(ZnSb)2,-0.555546219
13514,Nb5Ge3B,-0.5639284860185193
13515,Cd2Os2O7,-1.4691105263636353
13516,YbMg149,-0.02596586219999987
13517,Sc(Fe2P)2,-0.7041324366666666
13518,Zn3(SnPt)2,-0.4519093450000002
13519,YbSiO3,-3.431286057
13520,La2SeO2,-3.4914446384687516
13521,Ho3SbO7,-3.4391099472727267
13522,LiZr2(PO4)3,-3.173327016435186
13523,Tb2MgNi2,-0.3701710800000001
13524,Mg3TcH7,-0.3901510272727274
13525,SmGa,-0.60420210875
13526,LiAlSi,-0.19126570444444488
13527,Nd4MgCo,-0.09703858458333355
13528,CsLi2BS3,-1.2935898358056233
13529,La(PdO2)2,-1.9801573642857144
13530,Cs3SbO3,-1.7730991862561578
13531,VCdO3,-2.0791122720000006
13532,UTa2S6Cl6O,-1.7099794636718748
13533,Ca5Ga3,-0.3792595303124995
13534,ReI3,-0.34966436708333326
13535,CsTi5Se8,-1.4721894302391212
13536,GdNi(BO2)5,-2.853718377401962
13537,Li2B2Rh3,-0.48900788071428586
13538,Sb2IBr2F11,-2.2113458988281245
13539,K(BH)6,-0.45604837715384533
13540,Lu3InC,-0.5756188619999996
13541,KNaZrSi3H4O11,-2.6580434081929383
13542,ZrHg4(PCl3)2,-1.184314671955128
13543,K2TiCr(PO4)3,-2.846950873385964
13544,LiPr2C2N4F3,-2.0798182079861114
13545,Sr2Cu(ClO)2,-2.4489874833333336
13546,Ho2Ti3Si4,-0.7819131608333336
13547,SrHgO2,-2.042305565416667
13548,Sc2InPd2,-0.8193979204999998
13549,Rb2Cu2Si8O19,-2.8637572500000004
13550,HfTaTc2,-0.5167753949999998
13551,K2ScPCO7,-2.758051236611111
13552,Pr3OsBr3,-1.4190781907142846
13553,NiPH16NO10,-1.3692630261494254
13554,Mn(GaS2)2,-0.9511967050615766
13555,Co3O4,-1.3010949064285708
13556,K2SiP2,-0.48380851553333315
13557,Sr3BCNCl2,-1.519322685833333
13558,Zr6Co23,-0.22477011741379285
13559,ZrGeSe,-1.1903465424479183
13560,Eu(Mo3S4)2,-1.161464086666667
13561,Ho3Se3N,-2.106826184218751
13562,Cs2InAgBr6,-1.4771848007528736
13563,Ho3Co,-0.17071927937499964
13564,Sm(GePt)2,-0.9038775360000002
13565,Fe2(Se2O5)3,-1.314965183872282
13566,PAuO4,-1.759237480555555
13567,K3La(PO4)2,-2.995095785404762
13568,MgCu2,-0.1414163283333334
13569,Sm2Ni12P7,-0.7568675982539684
13570,Al3Pd2,-0.7729172799999994
13571,DyCd6,-0.17173017523809517
13572,RbAlSi3O8,-3.244704651346154
13573,LuCuGe,-0.6105082349999998
13574,HoAgPb,-0.388747357222222
13575,CsLu2Cu3Se5,-1.3004596581499799
13576,Er2FeSi2,-0.6912729999999996
13577,Ba6Nb4S13O3,-2.1188999897355774
13578,NbPCl8O,-1.6937321934848484
13579,Dy3MnB7,-0.6048565551906997
13580,BeH2,-0.16649827277777776
13581,Tm2InCu2,-0.39485186466666633
13582,Mg149Ta,-0.013423488600000155
13583,LiPb,-0.2718787616666667
13584,UB2,-0.5841653427777777
13585,NaLiMgPO4F,-2.97031059146871
13586,Er(MnGe)6,-0.32351648212201556
13587,Y5(SiB4)2,-0.6767150447777776
13588,RbSnCl3,-1.7827893984999998
13589,SrMgSi,-0.36957623555555524
13590,BaPdF4,-2.8533779433333333
13591,CsAs4F13,-2.572817385579502
13592,Gd3RuO7,-3.1304400277272735
13593,TaCrP,-0.6632200061111119
13594,Er(BRu)4,-0.5008215840740731
13595,K3Mn4P5H3O20,-2.4364573764968798
13596,Na4As2O7,-2.0155756674005305
13597,LiHfSe2,-1.5326117520052085
13598,BW2,-0.26186117805555637
13599,Te2(PO4)3,-2.131616609705882
13600,ZrOs,-0.5272357074999992
13601,Er11(AlGe4)2,-0.8016703154761904
13602,K2Ga2B2O7,-2.5290293372564108
13603,NaV3P2O13,-2.474842818853601
13604,Rb2H4Pd,-0.3739164221428573
13605,KB(SO4)2,-2.1412209684097214
13606,Na3Sc2V3O12,-2.8091927928577576
13607,Hf2FeOs,-0.5233935087500008
13608,AcYbZn2,-0.3010377656250003
13609,Nb2Tl4Se11,-0.7923922070067394
13610,K(Ti3Se4)2,-1.4701217147833328
13611,Ta2VRe,-0.26167529375000065
13612,Li2Ga7,-0.1896907593518521
13613,Al(BiCl)4,-1.1034899319444447
13614,Cs4FeO4,-1.5037335735249044
13615,ThGaRh,-0.9092500825000008
13616,Sm6Si19Rh30,-0.9918383334545452
13617,MgInPd2,-0.6723600825
13618,LuIr,-1.012060159999999
13619,Na3TaS4,-1.3937158137068968
13620,Y2Mn3Si5,-0.5889392769626426
13621,SbSeCl7O,-1.1138786968593752
13622,ZrMnSi,-0.6708131584770101
13623,Pm2CoRu,-0.05238969624999967
13624,Sr2GeN2,-0.8063633599166671
13625,Na3Sr3AlP4,-0.8260699279989548
13626,GdCdAu2,-0.6587118275000003
13627,NbAlZn,-0.31498701083333397
13628,CeSi2Ru,-0.7872795175
13629,Ir3W,-0.360135767500001
13630,KMg3Cu(AsO4)3,-2.19876937015
13631,HoAsSe,-1.5797170949479178
13632,Na2PtF6,-2.3850968368263095
13633,Sr(SbPd)2,-0.8561425963333334
13634,Hf2TcRh,-0.780102265
13635,Ag6SnSb,-0.026202636874999907
13636,V3GaN,-0.7506112004999992
13637,Sc(P2Ru3)2,-0.7273307416666664
13638,LiNbFeO4,-2.495745716904762
13639,BeCl2,-1.8374670666666664
13640,Sr11Bi10,-0.8580395701587303
13641,CeHg2,-0.37013229833333333
13642,Ho3In5,-0.4357452368749999
13643,ThPS,-1.7175850354861122
13644,KSmF4,-3.9936272117500002
13645,SnH8(NCl3)2,-0.9859604920588242
13646,ScTiRu2,-0.6565899095833334
13647,LiHoSe2,-1.9294479045052082
13648,Lu2ZnOs,-0.37331013125000023
13649,Gd3TlC,-0.4183147326666671
13650,Na4Eu(SiSe3)2,-1.2922195750207226
13651,Dy2GaNi2,-0.5750452554999995
13652,Sr(GaTe2)2,-0.9876932116666666
13653,K2MgZr(MoO4)4,-2.4074616115000005
13654,Pr2Si2O7,-3.6085366813636353
13655,Sm3(GeRu)2,-0.6535150775000004
13656,Ba2LuBiO6,-2.864402011
13657,Ba3MnNb2O9,-3.1274668058620696
13658,RbPbIO6,-1.248388385277778
13659,Be(BH4)2,-0.24425139700757628
13660,Ge3Ir2Se3,-0.6481785677539058
13661,ZrTaB4,-0.8363737644444443
13662,EuSn2Ir,-0.5966300249999996
13663,Cs2NaHoCl6,-2.503486829241379
13664,RbHS2O7,-1.8669506523863633
13665,KBaV3Cd2O11,-2.3724577130833335
13666,TaGaNi6,-0.3662401809375
13667,V2Ga8Cu3,-0.20287988326923093
13668,Ta3SiTe6,-0.6329314992500009
13669,Sc2TlCd,-0.29106336333333305