,formula_pretty,formation_energy_per_atom
18895,LiC12,-0.006298209487177622
18896,K5U2O4F9,-3.450507410125
18897,CsH,-0.22258801146551743
18898,Eu2Zr2O7,-3.529119270454545
18899,Ho2InAg,-0.3985811416666669
18900,LiZnP,-0.5528442322222222
18901,Na2PdF6,-2.335731450530013
18902,Pr3AlN,-0.78555055
18903,Na3ErCl6,-2.366377953465517
18904,Th(Se2O5)2,-1.8574293114583336
18905,NaEuTl2,-0.2791971020545976
18906,USe2,-1.451706699229167
18907,Ho14Ag51,-0.23920378815384644
18908,KNa2Si12(BO10)3,-3.1221426023667385
18909,Gd(PO3)3,-2.9980997776923086
18910,KAg5S3,-0.47916290804166684
18911,Cs2KAlF6,-3.4299232533862067
18912,K2LaI5,-1.7653703851250002
18913,ZnNiF6,-1.9381429768749996
18914,BaGeS3,-1.433869005625
18915,CaMgGeO4,-2.871467272857142
18916,Cs2NaYF6,-3.5835555784080464
18917,Pb3O4,-1.4469811542857138
18918,TbCoGe,-0.6513004283333336
18919,CsSn,-0.3076297395905172
18920,HfScRu2,-0.7325357212500005
18921,Cs2Ca2(SO4)3,-2.53645845843353
18922,RbLiCrO4,-2.0906449558333335
18923,CdCoH18N6Cl5,-0.7418664046370967
18924,NdCu(MoO4)2,-2.2703590016666673
18925,NaSe2,-0.8830414195797415
18926,Nd5Ru2,-0.21904029357142868
18927,CaNb2O4,-3.02408783
18928,Tl2Mo2P2O11,-2.1965341354901966
18929,NaNbN2,-0.903782893669181
18930,NpBe13,-0.06402199741071511
18931,Ca2GaPd2,-0.7839132944999996
18932,LaNi2Rh3,-0.36174700416666755
18933,Ba2Cu2Te4Br2O11,-1.7823603369047616
18934,CoPSe,-0.6212058814756958
18935,SbH3S(O2F3)2,-2.0228390168749995
18936,Hg3Se3O10,-1.0185450907519535
18937,B4Rh5,-0.35673978296296205
18938,K2SrCdSb2,-0.6817028112777775
18939,Nb2P,-0.8198385868518522
18940,Ca2LaSbO6,-3.0998927565
18941,HfSnPd,-0.7195029316666665
18942,ZnBi2B2O7,-2.207865110486111
18943,Ti3Cu3O,-0.9360247642857148
18944,Ba5Si(Cl3O2)2,-3.1470283115625004
18945,TmBr3,-2.2315526422916667
18946,DySnRh,-0.8967195850000004
18947,Dy5S7,-2.361726325989583
18948,Pu2InPt2,-0.740429576999999
18949,CsHf6CCl15,-2.1884494079535237
18950,Ta2Zn3O8,-2.633592291153846
18951,V2Pb(OF4)2,-2.757490813076923
18952,Sr4CN4,-0.8455316621296297
18953,Yb2WO6,-2.657772569722223
18954,Er3Ga5,-0.6398321415624997
18955,ErRe2SiC,-0.4539820340000006
18956,Nd3Ge5,-0.7426245468750006
18957,RbO2,-0.9722602958333333
18958,Ba2Ge2Se5,-1.3865715913020833
18959,NiF2,-2.3193493649999994
18960,Cs6Cr2O7,-1.862813063505747
18961,Lu2GaAg,-0.4736297435416663
18962,LiSn,-0.32586698916666695
18963,Ba6Na2Cr2Ru2O17,-2.409797332865637
18964,Rb2Ag4S3,-0.6355657440046296
18965,Li6WN4,-0.9147499963636366
18966,Th(TeI)2,-1.3439955660000003
18967,K2Ge2Se5,-0.9575850008576386
18968,Yb2Ni7,-0.3280971522222218
18969,CsVPO5,-2.6548581204705455
18970,Ca4P6O19,-3.0681604003448277
18971,Tb4(Al8Pt3)3,-0.9135895327027023
18972,EuZnPd,-0.6346998666666673
18973,SrMoO3,-2.597527059333333
18974,Ba2Pd,-0.3641601699999999
18975,SrH4(SO4)3,-1.8944971583020838
18976,Cs2LaCl5,-2.6202137401077583
18977,LiZnP2HO7,-2.420797646458334
18978,PrMgAg,-0.25814369166666634
18979,Rb2LiGaF6,-3.0913798765833334
18980,Cd2Hg13(As2Cl3)4,-0.6626616445714286
18981,NClOF4,-0.930484742142857
18982,TmFeB4,-0.6509847897222217
18983,TbZn12,-0.18813715461538458
18984,ZnAs2,-0.15632683458333338
18985,Zr2In5Ni,-0.2750080365625003
18986,CsGaS3,-1.1353510979612067
18987,Na4SnO4,-1.867603921245211
18988,CsSrTa6Cl18,-1.9147500611383728
18989,VNi3,-0.24214370500000015
18990,La3HfGa5O14,-3.072600506630435
18991,Rb4PbBr6,-1.8439529104545451
18992,Dy5Sn4,-0.7350382475000004
18993,SmFeSi2,-0.6681175350000004
18994,LiVPHO5,-2.4909055782407403
18995,Eu(SiNi)2,-0.6411057449999987
18996,Ba(InAu)2,-0.5494515494999999
18997,LaZn,-0.3157824224999999
18998,Rb2Zn3O4,-1.6780573655555553
18999,TbCuSi,-0.6446074316666662
19000,NdInAg2,-0.3669140683333336
19001,Tb(Al2Cu)4,-0.31325035307692306
19002,CdH6(NCl)2,-0.7866562345454546
19003,Ba2TaFeO6,-3.0071309755
19004,DyP5O14,-2.8327566407083333
19005,LiZnPS4,-0.9474917341666667
19006,Dy5(GeSb)2,-1.0123264483333339
19007,La3Rh4Pb13,-0.33233024425000013
19008,DyGeAu,-0.8291544633333334
19009,Sm(CoSi)2,-0.7625152649999997
19010,DyUTe4,-1.227610415000001
19011,Y3C4,-0.31668726528571367
19012,PaAlAu2,-0.42463867499999974
19013,ZnCrH15N5Cl4F,-0.9060531021296306
19014,Sr2V3BiO11,-2.6462518613725488
19015,SrPrGa3O7,-2.8288651128472218
19016,Hf3Sb,-0.4190083093750001
19017,FeSe,-0.5079131286718743
19018,LiHPd,-0.40323644611111104
19019,Ba8Eu(BN2)6,-1.1816400207407403
19020,Ca(CuSn)2,-0.31456215799999965
19021,Nb2AlC,-0.505514475
19022,Cs2TlVF6,-2.9533964004195403
19023,Tm2Pt2O7,-2.491231618484848
19024,K6Sn2Se7,-1.194511306710417
19025,Ti20H2N17,-1.743870402863247
19026,NaNdSiO4,-3.290776867245485
19027,HoCrO3,-3.2297824425000004
19028,La13Cd58,-0.2842580414084507
19029,LiTbTl2,-0.3240662099999998
19030,CsLiWO4,-2.3232398930377665
19031,Lu4MgRh,-0.4220833412499996
19032,Sm2(MoO4)3,-2.6263646917647048
19033,Tm2Sn2O7,-3.034152879848484
19034,SrGaH5,-0.3406545773809526
19035,Dy7C2I12O,-1.6846855429545458
19036,Li2Ca,-0.011612940555555321
19037,RbHoSe2,-1.9601225205468742
19038,Th(SiPd)2,-0.9221424499999984
19039,Li(NdGe)4,-0.8056946095370373
19040,U6Cu3Ni3Sb8,-0.39512608849999964
19041,Pm2ZnIn,-0.39618784374999994
19042,YCuSb2,-0.7118801979166669
19043,La3SiAgSe7,-1.7201343202560768
19044,CuSe3Br,-0.5358392019062499
19045,ErRh3C,-0.5280322319999996
19046,MgB4,-0.13883316333333298
19047,KTe2F9,-2.6277609800416672
19048,SbICl8,-0.9620189865000001
19049,HoTl,-0.3155827916666665
19050,Rb2Hg2PdCl8,-1.4068055234615384
19051,Cs2KYBr6,-2.1898554330528732
19052,NpIr2,-0.4435273229166666
19053,CsPr(MoO4)2,-2.526775528994252
19054,Ho4Ga12Pt,-0.6194297717647058
19055,NbAlBr8,-1.4078442965
19056,Yb(Ga3Te5)2,-0.7307771
19057,Sr2Cu6P5,-0.44689261307692346
19058,SrPd,-0.6065796033333335
19059,GdGaPd2,-0.8834693206250002
19060,Ba(Si3N4)2,-1.3144629106666674
19061,Sr2PIO4,-3.1037422814583335
19062,TaNiP,-0.755976312777778
19063,PmHgAu2,-0.5898449331249997
19064,Ce3CuGeS7,-1.7175728443229161
19065,GdTe,-1.622416405000001
19066,LaN2Cl5,-1.4586464106250001
19067,Nd9Al5S21,-2.032264138446429
19068,LaAg,-0.25415638583333333
19069,K3W2Cl9,-1.6982065024285709
19070,Tm2GeO5,-3.403306938541667
19071,MgPaRu2,-0.3941997224999998
19072,ZnCuAu2,-0.14657361749999964
19073,KMnO2,-1.9512756650244263
19074,Sr11InSb9,-1.0864943075396822
19075,Rb2NaAl2(PO4)3,-2.9257640430775864
19076,TiMn2V3(PO4)6,-2.722109018866539
19077,URu3,-0.32705777874999953
19078,SrLaNiO4,-2.668879387380952
19079,Al(ICl2)3,-1.0810750362500001
19080,Tm2B6Os,-0.704080843703704
19081,ZrSiRu,-0.9167978016666672
19082,Hf2Ga3Cu,-0.4261786087499999
19083,K2TiCl6,-2.1843390310370365
19084,Zr2InN,-1.1524912687499986
19085,Rb2NaSbCl6,-1.877555660155172
19086,LaErIn2,-0.46859468375000013
19087,Ti3V2Cr(PO4)6,-2.8609389711111106
19088,NaZr2FeF11,-3.6407536116034476
19089,HfVP,-1.0739289511111114
19090,Na8CoO6,-1.5071398794942534
19091,LuGa2,-0.5754172899999995
19092,Cs2ZnCl4,-2.0446802158374386
19093,Zr5Ti5Pb6,-0.15146541166666694
19094,Ag5BiO4,-0.6637302973333334
19095,TcOs3,-0.07529584874999884
19096,YbPaRh2,-0.6860144899999998
19097,Ho2(MoO4)3,-2.658421817058824
19098,K2MnS2,-1.1740715570362064
19099,Cs2MnH12(SeO7)2,-1.454517174789697
19100,SmMn6(Sn2Ge)2,-0.21339724481432454
19101,SmInAu,-0.7390143038888881
19102,CsPbF3,-2.785557716086207
19103,Er(FeGe)2,-0.44842378800000093
19104,Ba2LuB2ClO6,-3.3386203515277786
19105,Li3NbS4,-1.4009029162499997
19106,Pr2CoSn4,-0.570270870714286
19107,LiGaNi2,-0.33927229270833337
19108,Zn3Cd3(TeO6)2,-1.6323906316249996
19109,Pr(CuSi)2,-0.556378695
19110,Ga2FeO4,-2.0642677575
19111,KGd2Cl7,-2.668373037800001
19112,SiH8(NF3)2,-1.8038880088235292
19113,BaGdCuTe3,-1.4699973849999999
19114,Ce2Ge5Rh3,-0.8059932329999995
19115,Gd2Hf2(MoO4)7,-2.57885311448718
19116,CuP4S3I,-0.3908590208564817
19117,Li2MgSiO4,-2.9557957014583334
19118,Al13Os4,-0.44380072705882284
19119,Dy(GaFe)6,-0.3204205980769228
19120,K2Ni3Se4,-0.840013595041666
19121,U2InPt2,-0.5415377850000013
19122,Ca3(MgZn2)5,-0.2017751577777778
19123,MgU2P2(H10O11)2,-1.9841875363120554
19124,Li2YbSi,-0.3019612216666667
19125,Ce5(FeB3)2,-0.44605848923076946
19126,Sc(SiNi)2,-0.7668966709999993
19127,TmRhO3,-2.609267091333333
19128,ThAlCo,-0.5243993038888893
19129,Cs4Tc6S13,-1.1029565333630051
19130,EuPO4,-3.109330395555555
19131,NaYbAu2,-0.6599664591379311
19132,GdTl(MoO4)2,-2.365537254861111
19133,AlVOs2,-0.47344158500000155
19134,KNiF3,-2.6417304601
19135,NbTlBr4O,-1.638275844047619
19136,Na2TiFe5(Si3O10)2,-2.706332900630494
19137,Dy3(GaNi3)2,-0.5545190886363632
19138,K3Gd(BO3)2,-2.817912190819444
19139,Sr2CoO4,-2.3524502744047626
19140,Ba4Yb(CuO3)3,-2.270900382352942
19141,RbBrO3,-1.0529598459999996
19142,EuSi2Ni9,-0.397132640416667
19143,MgH2(SeO4)2,-1.4776716938221148
19144,Na3Cr2(PO4)3,-2.6113681367327573
19145,PrEuCuS3,-1.8956505673958333
19146,Na5LuH4(C2O7)2,-2.10054530974138
19147,Sr2LiTaN3F,-1.8064396736458335
19148,NaS2,-0.9166709067672413
19149,CsTmSeCl2O3,-2.4477063649301813
19150,Cu3PF12,-2.165508415208333
19151,CaTe2O5,-2.097980019375001
19152,ErNi,-0.4823072937499999
19153,TbMn6(Sn2Ge)2,-0.22508358904509315
19154,Ce3Se3N,-2.040269328504465
19155,MgH12SeO9,-1.452992630754077
19156,Dy(NiB)2,-0.5597502336666664
19157,Tm3Sb4Au3,-0.8363799919999998
19158,CaSn2Pd,-0.6663131699999996
19159,Cd2H3ClO3,-1.381753394444444
19160,KBiP2S7,-0.8008452928674249
19161,LuGaO3,-3.220079677833334
19162,NaYSe2,-1.9445630369764721
19163,Sc2FeB2RuRh4,-0.7018279448333331
19164,Nd2Zn5Sn,-0.4597821350000002
19165,K(MoS)3,-1.0135601610535718
19166,AlPd2,-0.8311608641666665
19167,LiLa2OsO6,-2.877080388333334
19168,TbPmIr2,-0.7000659493750003
19169,Mg2MnB2Ir5,-0.4427137436264374
19170,Sr(CoAs)2,-0.614873599333334
19171,Mg2Tl2(MoO4)3,-2.1355346106140356
19172,NdAgPb,-0.457090140555555
19173,NbAlRu2,-0.6469519049999999
19174,CeB2Ir2Rh,-0.6823303605555561
19175,P4Se3Br2,-0.4485630642071759
19176,Sr2TbRuO6,-2.8491496448333336
19177,GdNi,-0.41023893499999886
19178,LiZr2(AsO4)3,-2.5100773596296304
19179,Na4Sc2Si4O13,-3.156969662117692
19180,Tb3(CuGe)4,-0.6328748936363637
19181,ThH2SO6,-2.4696899295625
19182,Tl2SnTe5,-0.46157799208333294
19183,YMgTl,-0.35048175111111135
19184,Ca4GeN4,-0.9722588797222227
19185,Rb2Li2SiO4,-2.4979214485185186
19186,Rb3GaO3,-1.829943027142857
19187,Mn3SiW2,-0.2391672856321835
19188,MgAl3SiBO9,-3.3090612537777786
19189,U4Si6Tc7,-0.589081723529412
19190,Nd5(FeB3)2,-0.3859897450000001
19191,TbCdAu2,-0.6720227424999998
19192,NaZrCuSe3,-1.2908781514304952
19193,KNi(PO3)3,-2.5194392323571435
19194,Ba3AlSb3,-0.9958191175000002
19195,TiGePt,-0.8673763294444446
19196,Ca4Be2Al2Si9(HO14)2,-3.2356199975531914
19197,La3Ir3O11,-2.451200196323528
19198,CsEr(MoO4)2,-2.5783748639942536
19199,NaHg2,-0.23593657551724126
19200,Gd3(GaNi3)2,-0.5249287349999993
19201,Cs2YAgF6,-3.21703551241954
19202,Ba3OsN3,-0.6404198814285706
19203,KNaMg2Si4(O5F)2,-3.225967071227587
19204,CeMgRh,-0.5534134694444448
19205,Mn4FeGe3,-0.11387327709051664
19206,Ta4Se8SI8,-0.9139980578273809
19207,InSb3Pb4O13,-1.8373208630952387
19208,HoNiGe,-0.8042653183333334
19209,PbCO3,-1.8096030824999993
19210,ScSiPt2,-1.1215783825
19211,Pr2Ir2O7,-2.4070040590909088
19212,PrNiSb,-0.8879280466666657
19213,LiCaN,-0.7686410261111115
19214,CuBiSeO,-0.9508612005859369
19215,Bi2W2O9,-2.0282165821153844
19216,IrCl3,-0.9590322174999999
19217,PrIn5Rh,-0.44447269785714283
19218,K3GaF6,-3.05151331915
19219,Ti3Fe5P4,-0.9136089577777776
19220,Rb2TlAgF6,-2.3490205449999997
19221,Ta3Se12I,-0.9060834408203124
19222,HfAlCu2,-0.3285648850000005
19223,Li16Mn15Fe(PO4)16,-2.625551067639574
19224,KTb(MoO4)2,-2.5492129029583346
19225,HoGePt,-1.131487478333333
19226,TbNi2,-0.43240559833333236
19227,Lu(MnGe)6,-0.3226227475066325
19228,K49Tl108,-0.11787720647770733
19229,Na2Nb4Se4O19,-2.246236931637188
19230,CsB3O5,-2.811295753103448
19231,TbInPt2,-0.9548322324999994
19232,USn3,-0.12497000375000056
19233,Na3Mg4InSi8(O11F)2,-3.1171627996163798
19234,KRbGeO3,-2.0970918911250003
19235,K2Tc9O27F11,-2.0564490498163277
19236,KNaAs6(PbO3)8,-1.8028926377387933
19237,K3Al(PO4)2,-2.841807960523809
19238,Ti2Pd3,-0.6046632113333346
19239,KNdMnWO6,-2.653304340093103
19240,Ba2SnTe5,-1.2360767531250003
19241,Na3CdPCO7,-2.2657599763837313
19242,Na3TiP8O23,-2.6635797442044336
19243,K5Ag2(AsSe3)3,-0.8546526312856364
19244,LaYbAu2,-0.9013087187500002
19245,La(HoS2)3,-2.4220825238749994
19246,Dy2(Ga3Co)3,-0.487665188035714
19247,SmReB4,-0.5313961219444442
19248,Sr3InP3,-0.9407102360714289
19249,Ba2Mn3(SeO3)6,-1.8396610969950213
19250,PdPb,-0.26123728781249955
19251,CaAl6H12(SO7)4,-2.239964130049019
19252,InBr2,-1.1548982549999998
19253,V3Ir,-0.4986257174999995
19254,LiMo2(PO4)3,-2.507445361574074
19255,PrAl2,-0.4905889666666668
19256,Pr3Sb5O12,-2.5921691895000003
19257,Er(MnGe)2,-0.47516016717241455
19258,GaAg2,-0.04910433916666671
19259,La3Si6N11,-1.5184609194999994
19260,LaNi5H7,-0.32070788961538454
19261,SrZnF4,-3.4183562011111106
19262,SrTl3,-0.2624188041666664
19263,Cs5Na(W2N5)2,-0.671829053810346
19264,NaFe2Mo2H3O10,-1.7790025311973194
19265,K3(Cu4S3)2,-0.6705179539852938
19266,Na3Li3Fe2F12,-2.9689975693577586
19267,Ca5NbN5,-1.202489297272728
19268,Ac2TlIn,-0.37368253208333346
19269,La2Al3Cu7,-0.3328908141666667
19270,TlBF4,-2.931081901666667
19271,Hf2BIr6,-0.7863302610185186
19272,V2H,-0.19821702500000052
19273,SmCuTeS,-1.4262147976562503
19274,Rb6Te2O9,-1.7887125538235304
19275,Ce4Ru3,-0.3735353242857146
19276,Rb2CeI5,-1.708250225625
19277,CsErMnSe3,-1.5638147046488864
19278,AsHPb4(ClO)4,-1.581745578928572
19279,Fe3NiP2,-0.4715320711111109
19280,LaZn2,-0.3724769549999998
19281,TbSiIr,-1.049806348333334
19282,LiNd6B3O14,-3.4951326887847216
19283,K5Mo8As(H3O16)2,-1.9246081425000012
19284,NdZnPO,-1.9930187183333334
19285,ZrMnTlF7,-3.3510648268764363
19286,ErCuPbS3,-1.3526161232291674
19287,TlSbS2,-0.5847535498958338
19288,VSb2,-0.191192383333334
19289,KEr2CuSe4,-1.7281393940468748
19290,Ba2ZnSi2O7,-3.146198448333333
19291,Li13In3,-0.20605672395833352
19292,K2MgH8(CO5)2,-1.768437314608696
19293,Zr2CuOs,-0.3415749412500002
19294,TbAg(WO4)2,-2.378343019722223
19295,Mn2Te3O8,-1.734563735450928
19296,Ca3Fe3N5,-0.7187097468181828
19297,Sc2(MoO4)3,-2.6169732204411766
19298,NaHS,-0.8433811182255742
19299,Zn(PtO2)3,-1.1067462640000003
19300,Ba6Y2Ru3PtO18,-2.5779646986111118
19301,CdI2,-0.8391083116666669
19302,LiIr3,-0.209250513333334
19303,LaCrHO5,-2.389580083437499
19304,Ho7Rh3,-0.6312626165000005
19305,CsRb2PdF5,-2.5168526767145596
19306,TbCoB4,-0.5784033561111114
19307,Zr4Al3,-0.46024815714285694
19308,ScCoB4,-0.6424440740277776
19309,V3AsC,-0.5170225369999997
19310,CeZn3Cu2,-0.2598040758333327
19311,BaCaAlF7,-4.10301834775
19312,LiBeAs,-0.48530190444444443
19313,Cu(NO3)2,-0.800636670833333
19314,Eu(SiIr)2,-0.9539089689999998
19315,Li3Al2,-0.187246296
19316,Mo2PbSe2O11,-1.6555364074804686
19317,BaNa4Ti2Si10(BO15)2,-3.15926363737157
19318,Ca2ScSbO6,-3.1275018395000003
19319,Bi3B5O12,-2.4353786585416666
19320,Eu2ZnIn,-0.34983218499999946
19321,K3Nd(Si2O5)3,-3.1704374434600004
19322,LiTiVO4,-2.937961547380953
19323,FeSeBr7,-0.7311405077604165
19324,U(SiPd)2,-0.6022892639999995
19325,Hf3Ge2,-0.6944246180000008
19326,GdTe2,-1.5001968166666668
19327,UH16C3N4O11,-1.356005510571429
19328,GdNiSb,-0.9520437699999995
19329,Er5Co19P12,-0.9003647431944451
19330,LiRe(OF2)2,-2.6149063066666667
19331,CeNdS2,-2.2904519603125006
19332,Ag5P(S2Cl)2,-0.5481821199305562
19333,K5In3(SiO3)7,-2.813599118680555
19334,Na4NpO5,-2.5706704329956906
19335,CaSi2(NO)2,-2.402036565952381
19336,Ba4Ir3O10,-2.146049528235295
19337,P2W2O11,-2.384096141277776
19338,Cs2Sn2O3,-1.7229900486945813
19339,BaErCuSe3,-1.807193796171875
19340,Rb7EuFe6(P4O17)2,-2.5041363131101195
19341,NaPr2Se3,-1.9624823239304945
19342,CdRhF6,-2.077349128125
19343,CaTa2Bi2O9,-2.8497418435714295
19344,Na(RhO2)2,-1.389334544864532
19345,Eu2SO2,-2.823478824624999
19346,BaLi2(MgGe)2,-0.4264531880952381
19347,AuClO,-0.5986508755555554
19348,Pr3Os,-0.07575060749999984
19349,MgMnB2O5,-2.772786570418262
19350,TlGeS2,-0.6432777392708338
19351,BaTi(S2O7)3,-2.103452918347701
19352,ErCuS2,-1.6238961615625005
19353,Th14Ag51,-0.14837640169230765
19354,La(NiSn)2,-0.5654891839999998
19355,Ce(Co2B)6,-0.35587896526315665
19356,YbZnCuSi2,-0.3991966579999996
19357,Fe3Sb2(BrO)4,-1.423981110769231
19358,Er2TeO6,-3.037897511944445
19359,Li4TeO5,-2.104245431833334
19360,Ca(BRh)2,-0.6001852746666657
19361,Sc3InN,-1.191878701999999
19362,ZnGeRh2,-0.4957928112500003
19363,Sr3LiSbO6,-2.777810967575758
19364,K2SiF6,-3.431912319
19365,Ce4GeS3,-1.9131344717968748
19366,K2Cu3S3O13,-1.7494815325178574
19367,SmHoIn2,-0.4648139162499998
19368,Ga3Pb5F19,-2.8159366046296292
19369,HfScRh2,-0.956983891250001
19370,Y2IrPd,-0.8874462083333334
19371,Hg3Pd8Se9,-0.5279079495546875
19372,TmSnRh,-0.9053669994444447
19373,K4VP2S9,-1.1805156615182297
19374,K3VO4,-2.2861416633125007
19375,Nd3CuSiS7,-1.84284477640625
19376,RbBa4Sb3O,-1.436436349722222
19377,Li2AgPb,-0.2747109158333334
19378,Pr2Ni12P5,-0.6797824911403506
19379,NiSe2,-0.5549795965624996
19380,Hf2Fe3Si,-0.5652441708333337
19381,CaZn3Ni2,-0.3159944538888888
19382,CdIn2O4,-1.8494536564285708
19383,Cr2S2BrCl,-1.1925007956250002
19384,NaV3(PO4)3,-2.675302232186932
19385,SmVO4,-3.1895525500000006
19386,KGd(SeO4)2,-2.0023690710572914
19387,LaSn2Rh,-0.7859717599999998
19388,DyBiPd,-0.9399926733333336
19389,Ta9(NiS3)2,-0.9220090181617643
19390,PrMg2Cu9,-0.16225359749999946
19391,DyFeB4,-0.6153490086111107
19392,SrVPO6,-2.875018549444445
19393,Na2FeAsCO7,-1.9357075696336203
19394,ThCd11,-0.0755322002777778
19395,Li4Al3Ge3BrO12,-2.6455633996014485
19396,PuZnAu2,-0.33922547999999964
19397,HoGeRu,-0.7272038525000006
19398,GdTl,-0.3804227616666669
19399,CeAg6(NO3)9,-0.9276169101162783
19400,BaMnN2,-0.8478297913577588
19401,Li2B2S5,-0.9966273595138896
19402,Ce3CuSiS7,-1.8072232293229173
19403,SnGeO3,-1.9061459250000012
19404,K2LiAlF6,-3.4700394977666664
19405,LiTl2InCl6,-1.5762105029999998
19406,KMgAs3F18,-2.7316144656739136
19407,Ca3HfSi2O9,-3.5826406751666675
19408,As(S8I)3,-0.49627693589285776
19409,EuZn(BO2)5,-2.8153812304901966
19410,Sc5P12Ir19,-0.7423057981944446
19411,TiZnPd2,-0.5817453308333329
19412,Mg2CoH5,-0.36632886437500023
19413,UO2,-3.75044424
19414,Y2Ge5Rh3,-0.7868412813333329
19415,SmSbS,-1.6479094552083329
19416,Ba4LiTa3O12,-3.3701354761666664
19417,Al4B2O9,-3.2642063852222227
19418,Na2VNiF7,-2.9224165950548593
19419,Sr3MnN3,-0.872376161847291
19420,NaLiB4O7,-2.781326121465516
19421,ZrAsIr,-0.9103231350000011
19422,Li11V8(PO4)12,-2.7251639319831225
19423,Pa3Sb,-0.3898297424999999
19424,KAgBr3,-1.1851512754333335
19425,Nd3CuSnS7,-1.7321112434895827
19426,ZrCuSiAs,-0.5918578525000004
19427,Ta2MoRu,-0.3709102587499995
19428,TcCl3,-1.1684467445833324
19429,NdCoSi2,-0.7112887050000003
19430,Tb2C,-0.25211637333333314
19431,PH18PtC6S3BrF6,-0.8245348641724546
19432,PaInTc2,-0.08892617999999963
19433,Mg149Ni,-0.024394545600000015
19434,LaCu13,-0.06908101499999983
19435,Ca3SbN,-1.203127009
19436,PmCdHg2,-0.4095695068749998
19437,K3Fe2(PO4)3,-2.4864886867000005
19438,BaBiBrO2,-2.3260104825000005
19439,Tl2P4Pd3O14,-1.9980387245652165
19440,Cs2KSmCl6,-2.505748867386207
19441,GdIn2Rh,-0.6145789612499994
19442,ScMnGe,-0.5685301815325674
19443,ErTmIn2,-0.4233768966666669
19444,LiZrRh2,-0.6326209083333332
19445,Gd5(C2Cl)3,-1.0370986007142855
19446,K2Pb2O3,-1.5674005930000001
19447,DyRu2,-0.32650583083333373
19448,KTe,-1.0498140139999999
19449,ThCdAu2,-0.5978196774999995
19450,TiNiP,-1.0665942547222222
19451,V2O5,-2.289021817142858
19452,Y2(Ga3Ru)3,-0.5439838661309518
19453,NbPRh,-0.8765839986111104
19454,AgAuF7,-1.3159741151851856
19455,PmSnPt2,-0.8126100781250001
19456,U4Tc7Ge6,-0.44607436882352947
19457,K3TmF6,-3.630434157566667
19458,LaSbMo2O9,-2.3965115530769228
19459,Y5BiPd2,-0.7061174347916674
19460,DySbPd,-1.1247050966666663
19461,SbPtS,-0.6260812510416661
19462,K2Si3SnO9,-2.8853410067333347
19463,Tm8In3Co,-0.35097351444444475
19464,KCoPO4,-2.3546786032857137
19465,Dy3SnC,-0.6279087070000002
19466,Ga2Te2Br7,-1.009792894772727
19467,Na2In2SiS6,-1.1160336515321314
19468,CeAl5Ni2,-0.5837999468749997
19469,ErRe2,-0.27189457666666667
19470,CsOs2O9,-1.5018358023275873