,formula_pretty,formation_energy_per_atom
27008,LiGd2Al,-0.2181916158333319
27009,BaUTe4,-1.2353370891666664
27010,Co(PdSe)2,-0.46699786693749984
27011,Sr2Co(ClO)2,-2.515857242619048
27012,Th5Pb4,-0.35590195499999944
27013,BiPbIO2,-1.453000943
27014,ZnTe,-0.6841570300000002
27015,SmGeRu,-0.6855992683333341
27016,KZn13,-0.06720261164285724
27017,K23(Sn3Au4)3,-0.31836945736363637
27018,Tm2Ni2Pb,-0.5326932046666663
27019,Zn5Co19O32,-1.4579573577678582
27020,LaInAu,-0.7545497272222224
27021,Na2CuP,-0.3667200366091956
27022,MgCuF5,-2.530674278214286
27023,CoH18CN6ClO3,-0.7330532445000008
27024,Mg3SbN,-0.7244068570000003
27025,Sr2Bi3,-0.7045272531666672
27026,H5NF2,-1.27586781875
27027,EuCuSeO,-1.9014492880859368
27028,Bi2SeO5,-1.5801496434179692
27029,NdB2Rh3,-0.6527510380555555
27030,Na2Ti6O13,-3.3168057189573084
27031,KB5(H2O3)4,-2.1272850084166666
27032,DySi,-0.7926848125000001
27033,Ta5N6,-1.326913548636363
27034,Li4Ca(BO3)2,-2.7781162866666667
27035,NaTiS2,-1.5975605915337647
27036,TbB4Os,-0.574022159444444
27037,BaLaGa3O7,-2.8452224660416654
27038,Hf2NiP,-0.9723959033333323
27039,Rb2Th(Si2O5)3,-3.298847432708334
27040,KNaZnP2O7,-2.585782298643199
27041,CdHg2SO6,-1.3857941268125002
27042,La7Ir3,-0.5858444570000003
27043,SrSiPd,-0.7319533405555555
27044,ScInAu2,-0.6277214987499997
27045,GaCuCl4,-1.3148972354166666
27046,MgAs4,-0.22555652550000005
27047,Tb3TlF10,-4.13722215202381
27048,K2(ReS2)3,-1.0633752770227276
27049,RbPaO3,-3.5365396125000004
27050,TmGaNi,-0.6663767088888886
27051,Zr2AlFe3,-0.386559750833334
27052,NaScCl4,-2.4253251481752875
27053,Li2CdAu,-0.42531365166666646
27054,K2Sn(HO)6,-1.6211712827333338
27055,SrCd2Pd,-0.4887212479166667
27056,Y2Pb2O7,-2.535942678939394
27057,Ba3P2,-0.9820104543333337
27058,K2MgP4(HO2)8,-2.2180848061075267
27059,CsBiF6,-2.548965602866379
27060,CsHoZnTe3,-1.3007475046551715
27061,CaAcIn2,-0.44360676062500026
27062,Zr6Si7Ni16,-0.7487956651724135
27063,Sc3B2Rh5,-0.8782702923333332
27064,LiMo(PO4)2,-2.508090913958333
27065,PrCoSi,-0.6449013099999993
27066,HfNiGe,-0.7390129825000002
27067,AlCuTe2,-0.5505022087499998
27068,ErSnPt2,-1.0092217275
27069,Rb3MnH5,-0.16519748838122597
27070,VPt,-0.5504538850000005
27071,Tb2Ge(BO4)2,-3.2078217577564105
27072,U2P2O9,-3.237065310128206
27073,ZrN6O17,-1.1010728897916675
27074,LiVIr2,-0.4918650633333339
27075,AlInBr4,-1.3816872020833333
27076,LiLa(CO3)2,-2.597065977833334
27077,KAl3Fe2Si2(HO6)2,-2.7291745233181826
27078,Co(BMo)2,-0.48850737066666594
27079,CsMgCoF6,-2.927308003103449
27080,KTa3(TeO6)2,-2.6840331383611127
27081,BF3,-3.112330842604166
27082,Tl2Cd2(SO4)3,-1.7821362759758772
27083,MnCoAs,-0.27841373681034537
27084,NaNdSe2,-1.9129726628098056
27085,SnCl2,-1.4022609525
27086,AlTl(MoO4)2,-2.203945486944446
27087,Zr2V3Ge4,-0.6134840430555563
27088,CsTb2Ag3Te5,-1.0787037411755487
27089,ZnSb,-0.12399639812500007
27090,Ba4U8As2O33,-3.3756217502127654
27091,Eu2BrO2,-3.078559180500001
27092,HoMg149,-0.025704911200000045
27093,Er2CuRu,-0.3856452287500005
27094,Sm2Fe2Si2C,-0.6191667428571433
27095,Ca5Ag3,-0.2839842106249999
27096,Re3S4Cl,-0.9368310918749998
27097,NbAlFe2,-0.3757604849999998
27098,P2S5,-0.5192989474702381
27099,Ta(CoTe)2,-0.4884026685000009
27100,BaAs3,-0.6276957175
27101,La2PI2,-1.7591888166666663
27102,Cs8Ga11,-0.1417468068920143
27103,RbVOF3,-2.9763023341666677
27104,VPd2,-0.28005357666666697
27105,Lu2Mn12P7,-0.7157969470717024
27106,YbZnPb,-0.42918513333333347
27107,KBaPSe4,-1.2928711172440472
27108,SmBe13,-0.17413596107142887
27109,URe2,-0.01896264166666602
27110,PmTmZn2,-0.33186248854166633
27111,CsAg3Te2,-0.539922957155173
27112,Rb2Ni3S4,-0.9476769075000004
27113,TbFe3,-0.05440651333333454
27114,Mg4Zn7,-0.130246979090909
27115,CeO2,-3.9284631016666665
27116,EuTmCuS3,-1.9230089601736118
27117,K4Mg(MoO4)3,-2.288683254850001
27118,LaGe,-0.8517784512500004
27119,Na2Mn3O7,-1.9403542809913799
27120,CsCa2Nb3O10,-3.156097761433191
27121,Gd(SiPt)2,-1.0954395599999998
27122,Ce(AsRh)2,-0.9227181180000003
27123,Mg2B4Ru5,-0.35515681969696994
27124,CeB2Rh2C,-0.6155591555555553
27125,Cs2CuCl4,-1.7258624679802954
27126,Ba3ScCO3F7,-3.717219769833333
27127,Cu4Bi3Pb(SeO)4,-0.9682286580859367
27128,Ho2Fe2Si2C,-0.6764522428571433
27129,Tm2S3,-2.3780256457916664
27130,Rb2U2WO10,-3.026190679166668
27131,RbHg11,-0.09323794743055552
27132,K(SnAu)3,-0.28400655614285697
27133,DySe,-1.9789004061718751
27134,Gd2ZnIn,-0.4264527074999993
27135,KCu7TeS5ClO24,-1.5174572327211546
27136,Ba6Nd2Ga4O15,-2.943677318333334
27137,KNi4(PO4)3,-2.1881346506499995
27138,CaBiPd,-0.7527055974999998
27139,Sm(CoP)2,-1.002248190333333
27140,Ca2CdSn,-0.5605719787499996
27141,P4N6O,-0.7919044748484846
27142,K2CrO4,-2.0646921008571426
27143,K3NaUC3O11,-2.4585653868711423
27144,VGeRu2,-0.3642350312499989
27145,TiSn6F16,-2.836958521666667
27146,Nd12(MnC3)5,-0.22389593561422405
27147,Ba2NbP2O9F,-3.234519707944444
27148,Al53Fe17Si12,-0.30029721109756113
27149,CeSiOs,-0.6143826816666665
27150,GdS,-2.3123287315625003
27151,Na5TaO5,-2.328543087068965
27152,Sc3Ga5Co,-0.5757635747222223
27153,Ba2Na(SnAs)6,-0.4591043611034488
27154,K2Mg5Sn3,-0.20262704910000018
27155,KNa4GeAs3,-0.40610075463409956
27156,Mg4B3Ir2,-0.3407973274999997
27157,Ba5P3ClO12,-3.3034276647619047
27158,MnAs2H16(S2N)4,-0.49727475001390353
27159,K4US3O14,-2.4647911308011357
27160,Na11TiNb2Si4P2O25F,-2.8598803212949773
27161,LuSBr,-2.3567618968749997
27162,V2NiO6,-2.1026182450000004
27163,Dy2CI3,-1.3524569883333328
27164,MnCl2,-1.4949585926436786
27165,K2NaAsF6,-2.7966214122551727
27166,Ca2SbAu,-0.9631397324999997
27167,Zn2IN,-0.4121487518750002
27168,SmCuSn,-0.5990139349999998
27169,Cs2ZrSe3,-1.6157551463155528
27170,PmS,-2.2842099253125
27171,ThMn2SiC,-0.469699864172415
27172,Zr4TaGe4,-0.7674335766666663
27173,SmCuO3,-2.4121013065
27174,U2SN2,-1.8224876706249986
27175,Ta6Fe7,-0.19362954076923153
27176,Fe3P2(HO5)2,-2.0909173798039222
27177,K3Ce(PS4)2,-1.3365755937976194
27178,CoBiAsO5,-1.6579524499999998
27179,Ba2TmTaO6,-3.614252974666667
27180,YB2C,-0.5241349431249995
27181,DyInNi,-0.5005045077777781
27182,HoInRh,-0.7528304144444447
27183,Mn(BMo)2,-0.46200530625287256
27184,SICl7,-0.6682102803472224
27185,Lu(Al5Re)2,-0.3410483914102564
27186,PrTaO4,-3.6497111424999993
27187,Pr10S14O,-2.4627951731500004
27188,SmOF,-4.201350179166668
27189,Ca6Ag3Ge5,-0.5469410910714281
27190,Rb2TeBr6,-1.4144940966666668
27191,Na5TiP2O9F,-2.8186008071671456
27192,LiV2N3,-1.1237539630555549
27193,CeZnSn,-0.5598808033333338
27194,Sc7Cl10,-2.0627849238235294
27195,K3Ti8O17,-3.3068171943095246
27196,ScNbRu2,-0.5343551287499988
27197,Dy4Ge6Rh7,-0.9420787623529409
27198,Na3GdCl6,-2.3625730929655164
27199,Sm3SbO7,-3.352076431363636
27200,NaGaH4,-0.21396282484195459
27201,P28Pb5I2,-0.09058980259523862
27202,TbAl3Cu2,-0.4336195399999993
27203,TlCuPO4,-1.9214887220238097
27204,Yb2Cu3Te4(ClO3)4,-1.7019734732000007
27205,Na2MoO4,-2.1551916040147794
27206,Nd2Si2PbSe8,-1.3214119075961532
27207,Cs2TiI6,-1.3795465410217116
27208,Gd2IrPd,-0.8467917650000008
27209,Bi2Se3O10,-1.4125052414687502
27210,Rb2SnCl6,-1.888469903333333
27211,Pr(BOs)4,-0.3750688918518503
27212,MnSi,-0.4332087152155175
27213,KSb5S8,-0.677034351464286
27214,Ba2Tl(HO)7,-1.7238586034313728
27215,Sr7(H6Cl)2,-0.9922262522222227
27216,LiVO3,-2.4271944011666675
27217,TiRe,-0.3979388041666656
27218,Ni(AuF4)2,-1.614894603636364
27219,K2Li14Zr3O14,-2.571262839777778
27220,USi3Ir,-0.562701276
27221,KCoO2,-1.5156875232500004
27222,Co2AsHO5,-1.5139002638888894
27223,LuCu2,-0.2942918849999998
27224,Rb4Hf3S14,-1.4488049204166669
27225,BaB8H4O15,-2.6096261350297616
27226,Y4CdIr,-0.5185391502777771
27227,VSi3Mo4,-0.4477995681250011
27228,InH9(NCl)3,-0.8088409968749999
27229,PmRh3,-0.36751568187500006
27230,SmAl8SiAu4,-0.5179825728571424
27231,KV3Cd4O12,-2.03874917065
27232,BeGeAs2,-0.17437403125000017
27233,Hf3Zn3C,-0.47944041714285696
27234,BaThN2,-1.36371249875
27235,Y2Au5F21,-2.2232497543154763
27236,TlCr3S5,-0.9496025659953702
27237,Gd2(Zn2Ge)3,-0.39763798318181837
27238,La(SiOs)2,-0.7025380750000011
27239,AuCl,-0.5222134074999998
27240,Cs3TaS4,-1.5556082945366385
27241,Mn3PtN,-0.38122425375862007
27242,CeSbAu,-0.8944928566666661
27243,LiCaAlF6,-3.8718742942592588
27244,LiNd2OsO6,-2.818655874833334
27245,Li6V3P8O29,-2.7066704966666673
27246,TlSbWO6,-1.9334356581481478
27247,Bi2(PbS2)3,-0.721814869431818
27248,RbEuAsS3,-1.3833091832291668
27249,LiFeBr4,-1.205600926388889
27250,Sc2Nb3Ge4,-0.7156124316666658
27251,LiFe2P3O10,-2.4798167148958346
27252,NaMgF3,-3.4999177253103446
27253,Yb3GeO,-1.884681874
27254,Na2B2S5,-0.9754038774513086
27255,YbCu,-0.2896376974999999
27256,NaSmAu2,-0.5942516903879311
27257,Ce3Ni2Sn7,-0.5502791233333338
27258,Ca2TmRuO6,-2.8950452661666675
27259,Dy(SiAg)2,-0.35836749266666673
27260,Rb2GaAs2,-0.47611271475000017
27261,Tm(MnSn)6,-0.13456400032714447
27262,BPt2,-0.17572250638888912
27263,ThSnPd2,-0.7955488362500001
27264,Li2RuO3,-1.8589013894444442
27265,CaLaGaO4,-3.2239986946428565
27266,HfAlPt,-1.0425174827777783
27267,SrAu2,-0.7375259222222219
27268,NpTl2F6,-3.0594459822685187
27269,KSb2PO8,-2.2207114976111115
27270,SmAl3Ni,-0.5856400995000002
27271,PmDyHg2,-0.46867857187499995
27272,Ge(PbS2)2,-0.7543336007142857
27273,Sm2CdRh2,-0.6349037369999998
27274,Sc2CuB2Ir5,-0.6944800363333329
27275,BiAsO4,-1.7661190350000002
27276,La3CuSiS7,-1.9410744509895832
27277,NaFe(GeO3)2,-2.047597991155173
27278,KNaGdTaO5,-3.120385354950192
27279,Cu2PO5,-1.6855883191666674
27280,Zr5ZnPb3,-0.3300331211111111
27281,CaCeHg2,-0.4453306337499998
27282,GaFe2BO5,-2.125577314629629
27283,HoCdPd2,-0.746176685
27284,Ba2PuPaO6,-3.5555751360000007
27285,Ca5(ReO6)2,-2.885213149035088
27286,TiMnO3,-2.9546040562528737
27287,Gd4Ni13C4,-0.32144077
27288,Ba3Na2Cr4F20,-3.446780957520809
27289,Cs2CoCl4,-1.8017193240517244
27290,KLiSi2O5,-2.978344039037037
27291,YNi5Ge3,-0.5335941090740748
27292,Pm2PtRh,-0.8853168262500004
27293,Ba3NiRu2O9,-2.1863688923333333
27294,Sc2B6Ir,-0.7334992386111097
27295,LiZr2N3,-1.5180576105555552
27296,LiZnAg2,-0.19376327416666683
27297,TaTiAlC,-0.6221021620833334
27298,TbPO4,-3.5012170272222214
27299,Li(CuP)2,-0.31846062999999986
27300,SmHO2,-2.93072619125
27301,SmCO4,-2.5095386877777788
27302,Sc2FeB2Ir5,-0.7214468473333341
27303,TaP2NCl12,-1.4012788554166664
27304,CuAs12P4S12Cl,-0.4175629985277785
27305,LiAuS,-0.8897458046527777
27306,Sb6S2O15,-1.8129293198369563
27307,NaCe(PSe3)2,-1.0275083387280894
27308,Zr2HC,-0.7332457887500006
27309,DyAu,-0.8836153150000001
27310,Na3AsS3,-1.0651265598614539
27311,K6ZnBi5,-0.3459761865
27312,AlVO4,-2.7968212494444447
27313,BH(PbO2)2,-1.910303591770833
27314,Ag2SnSe3,-0.47646103214409763
27315,PuB2C,-0.33749270208333354
27316,K3Er(SO4)3,-2.4655775657039474
27317,Li2MgGe,-0.3307461729166663
27318,Gd5Y3O12,-3.93119873175
27319,Cs6InAs3,-0.359494030258621
27320,KH2N,-0.4352451694999999
27321,K2Mo3O10,-2.102956948733332
27322,KP2WO8,-2.5575649949722226
27323,KEuO2,-2.5894031444999994
27324,Rb2Cd3Se4,-1.0547224463194442
27325,PICl6,-0.9777254941666667
27326,Ba6Sn6Se13,-1.4678994579187503
27327,Rb3Ta5O14,-3.1629738780113623
27328,HgAsF7,-2.214758061111111
27329,Al2NiRu,-0.6933861937500003
27330,Eu2TlZn,-0.3335483308333336
27331,K2Ti(CuS2)2,-1.278359676314814
27332,Yb3Co4Ge13,-0.37447693474999966
27333,V3AgO8,-2.0749161813888897
27334,CaHCl,-1.7572698933333333
27335,Rb2Si3SnO9,-2.865477992000001
27336,Bi2Au5F21,-1.7531668902678572
27337,Zr6Al16Ir7,-0.8589842217241377
27338,YbHfO3,-3.971123459
27339,Lu12In2Fe3,-0.20794546588235321
27340,CsSi2BO6,-3.0537719048347696
27341,K2NaAlP2,-0.5473641848697319
27342,Cs2NaPbF6,-2.7755500617413795
27343,Nb5As3,-0.5653777667187505
27344,TmSn2,-0.5390450805555554
27345,K5Mn2B2P5O21,-2.633860644738916
27346,KCuF3,-2.3598687480999994
27347,K2UBr5,-1.9073486207500001
27348,Ba2Zn(BO3)2,-2.9065027559848478
27349,Ti2MnCo,-0.3852193623994271
27350,Sm(BO2)3,-3.17872340775
27351,Cs2TlInF6,-2.79321594341954
27352,Nb3In2Cl9,-1.543985511428571
27353,Er(SiIr)2,-1.085340398000001
27354,Nd5Ge4,-0.8010681041666672
27355,Ba2Eu(CuO2)4,-1.9368617396666659
27356,EuAl8SiAu4,-0.4815628453571428
27357,NdMgPt,-0.895288776666667
27358,KLu(NbCl3)6,-1.9030028481923078
27359,PrInRh,-0.6803409761111112
27360,Cu2GeSe3,-0.48109025867187505
27361,LiAl,-0.17763832666666657
27362,InCo3SnS2,-0.5100107851785712
27363,Ca(NiP)2,-0.8513654033333331
27364,SmLuHg2,-0.4645459237499998
27365,NdZn11,-0.2181867000000001
27366,KUN3O11,-1.7018925039374997
27367,Th5Sn4,-0.5903410605555561
27368,TaSiIr,-0.8201872766666677
27369,Mg3H2(SO5)2,-2.322720442132354
27370,Cs2LiSmCl6,-2.47915968541954
27371,Dy6Al7Cu16,-0.36853863206896603
27372,Na4CaZr2TiSi4(O8F)2,-3.297407436484674
27373,As2Pb3O8,-1.735235113461538
27374,DyGe2Pd,-0.76011393875
27375,PrAu,-0.7937143275
27376,VTc,-0.37241396999999843
27377,DyPtF7,-2.9226671674999998
27378,Ti2MoPd,-0.3925075016666675
27379,EuCu(MoO4)2,-2.132190704583335
27380,PaO3,-3.088445151250001
27381,Nd(Al4Co)2,-0.4671340809090907
27382,Hf6Al2Co,-0.335526741666666
27383,LiMgPO4,-2.9512080991666667
27384,Pr5Zr3(Ni4As3)4,-0.8212529137499998
27385,Zr3Ga5,-0.6021832659375006
27386,As2Se3,-0.40142223040624997
27387,DyCuSb2,-0.7026416812500003
27388,HoTmIn2,-0.42976120666666606
27389,SrNiN,-0.6746078724999999
27390,NdH12(ClO2)3,-1.5555483947727275
27391,BaNaBO3,-2.8548703726197324
27392,NaYF4,-3.9685895897030647
27393,Rb3YCl6,-2.5042147246666664
27394,K3Nd(AsS4)2,-1.1978784145714287
27395,Y2Mn2O7,-2.876118213563218
27396,CsMgH12(ClO2)3,-1.5139478805622189
27397,Th(SiTc)2,-0.6763761180000003
27398,CeGaRh,-0.8106285908333332
27399,K2NaInP2,-0.4161827732030652
27400,Pm2NiPd,-0.5021148037499996
27401,K4Mn3F12,-2.985230986883848
27402,Yb(FeSi)2,-0.48765538399999997
27403,Ho4(Al8Pt3)3,-0.9068094799999995
27404,ScBrO,-3.195290790833333
27405,Nd4Se3O4,-3.131734423366478
27406,Li24Mn11CrO36,-2.194581433156131
27407,RbH2OF,-1.9278784280000003
27408,Ba2Pb,-0.5412842341666669
27409,YAl7Cu5,-0.3448880828205122
27410,NaCr12Si8BrO28,-2.6122527656810335
27411,DyPb3,-0.27811823749999975
27412,DyCd3,-0.2744276037500002
27413,SmGa2Ni3,-0.5369302877777776
27414,Rb5Au3O2,-0.8579938572500001
27415,Tb2Co14B,-0.16771853598039185
27416,Rb3Mn3P3O10F7,-2.7382519870689657
27417,Na3P(SO)2,-1.8530773608423132
27418,Cd2Ge7O16,-1.9963925219999998
27419,CeO,-3.2341618499999996
27420,Ho2SO2,-3.599082250625
27421,AsKrF7,-1.7441384283333337
27422,Mn5Ge3,-0.1067237599568962
27423,HfRh3,-0.7463878449999992
27424,LiCaSi2,-0.37356226958333316
27425,CaLaMg2,-0.10995593125000003
27426,Ce5Ir4,-0.7266101786111108
27427,GdTiGe,-0.6915326544444452
27428,KCrPO4F,-2.769990525947917
27429,CsBaLiP2O7,-2.941157324827586
27430,Sr(SiAg)2,-0.2654775099999995
27431,Cs4K2Cu(SiO4)2,-2.2748483625131843
27432,Sr3MgIrO6,-2.642203884545454
27433,Ca2AgSn,-0.5355272104166664
27434,TbNiGe,-0.790116705833333
27435,Ho2CuRu,-0.36459160874999963
27436,CoSe2,-0.6122043065625006
27437,Li4H6Os,-0.5012045539393933
27438,TmMgCd2,-0.27750560916666656
27439,TaBi(P2O7)2,-2.706732940916666
27440,Cs3Y2Cl9,-2.603631296223317
27441,Tl2TeBr6,-0.9833805812962962
27442,CrTe2,-0.47679832000000033
27443,LiBr,-1.8359013554166665
27444,Tb2MgCu2,-0.2294341750000001
27445,HoRe2,-0.24688204166666713
27446,C6N7Cl3,-0.171940778072918
27447,PICl8,-0.9630231553333335
27448,CuI,-0.34307306000000004
27449,Sr2BrN,-1.516210923958333
27450,LaInCu5,-0.21717746357142836
27451,Cs2VHO4,-2.076982340107759
27452,K7(FeS2)5,-1.0486522735113633
27453,Pr6Si4S17,-1.7829836121527767
27454,NaPr2IrO6,-2.625861529155172
27455,Ce2Ge5Ir3,-0.7465540375000004
27456,K4WO5,-2.087290310533333
27457,Ba3Zn3Te(PO7)2,-2.629872676376812
27458,SmNiAs,-1.0398245533333323
27459,Mg2Ni3P,-0.48343975055555494
27460,Bi3Ir3O11,-1.4434335144117645
27461,Nd3(Si3Pd10)2,-0.803924317241379
27462,TbInCu,-0.4141121077777778
27463,CrCoP,-0.5707757594444433
27464,FeSeO3F,-1.6923813778906247
27465,Ba4Mn3O10,-2.5461156728701826
27466,Hg3TeCl4,-0.8937976014062503
27467,BTe3(OF5)3,-2.3450510934848485
27468,Er(Al5Ru)2,-0.5113352865384618
27469,Cs2MnBr4,-1.7314016398275858
27470,MnNiAs,-0.2565419054214557
27471,ErCoSn,-0.49159040333333337
27472,Gd3ReB7,-0.5573645481060613
27473,Ba3SrEr2(MoO6)2,-3.0873155898333335
27474,BaCa2WN4,-1.2123511654687507
27475,Cs3PrCl6,-2.5102384888793097
27476,Yb8Ge3Sb5,-0.9101179424999999
27477,CoP2(H4O5)2,-1.7721471172222227
27478,PrMoBrO4,-2.5832845157142867
27479,TbAl3,-0.43552819249999963
27480,Na2Si(S2O7)3,-1.9580645880617813
27481,TiPt8,-0.4346668581481481
27482,Pr2CuO4,-2.9410150171428566
27483,Tl3VSe4,-0.7859593024218743
27484,TaFe2,-0.1959960933333337
27485,Ta2CrO6,-3.046769657777778
27486,CsUP3O11,-2.914547776745689
27487,Ba4Nb2(OF4)3,-3.8006867393650796
27488,NaGa4,-0.14347590931034446
27489,Nb3As,-0.4197684724999995
27490,BaBr2,-2.5807274016666666
27491,SmAgHg2,-0.3586875104166669
27492,Ba2Ga2S5,-1.6686081584027777
27493,Sr(CeSe2)2,-2.1634536344345237
27494,Cs3CrF7,-7.085101851026646
27495,U2(AlSi)3,-0.2505791100000003
27496,TbGa5Co,-0.47324461607142865
27497,Nd14Au51,-0.6345800078461541
27498,Ce5(MgGe)8,-0.5047698349999993
27499,LiInI4,-1.0012032984722223
27500,K2PdF4,-2.4208131051428574
27501,LaZnIn,-0.45401281166666685
27502,VTeO4,-2.0029707675000004
27503,PrCuSe2,-1.4754235511718745
27504,LiBi3(ClO2)2,-1.8077622638333337
27505,K3TmCl6,-2.4940714250666667
27506,Cr2(Bi2O5)3,-1.7208289165217387
27507,ThPd,-0.7671264549999997
27508,Ba3Fe4P8PbO28,-2.713879830833333
27509,LiSc(GeO3)2,-2.6558266143333333
27510,Be4TeO7,-2.572461847916666
27511,SmAsO4,-2.820641885
27512,Mn2CrSi,-0.3045148739655179
27513,NaSbSe2,-0.8653031128098059
27514,ErPbAu,-0.657796826666667
27515,Zn(ReO4)2,-2.101830792727273
27516,CsTa(CuTe2)2,-0.68471573880388
27517,Na2In2GeS6,-1.019431649259404
27518,Pr2(SeO3)3,-2.289715972764137
27519,K2Zn(GeO3)2,-2.118034853727273
27520,Sr4FeRuO8,-2.558125801547619
27521,TcRu,-0.05903491249999959
27522,Er2WO6,-3.3295030597222226
27523,Cs2CuP2O7,-2.4086485547940604
27524,Pr2Sn2O7,-2.9579367295454535
27525,Cs2UNb6(Cl5O)3,-2.0900471970689645
27526,Sr6Sb6S17,-1.3380986620043098
27527,Ba3P4,-0.9500904019047616
27528,Ho(NO3)3,-1.4545427151923092
27529,MgSnAs2,-0.31180010499999966
27530,Sr2FeOsO6,-2.332700508333333
27531,Y2Be2GeO7,-3.2717926906944435
27532,Gd3Si2Cl5O6,-3.214716430937502
27533,ErCo3B2,-0.5190125005555544
27534,Cs(SbSe2)2,-0.778202814615148
27535,Tl2(SeO4)3,-1.0878846180116426
27536,Tl2InGaF6,-2.3851293319166667
27537,Ba2CuClO2,-2.4497770083333337
27538,K5InO4,-1.57370378825
27539,CsSmHgSe3,-1.4669687724937142
27540,Er6MnSb2,-0.5778065731034485
27541,Li3AlF6,-3.482632344
27542,SrLaCoO4,-2.767865823095238
27543,CsZnFeF6,-2.7790138164367817
27544,K2Pd3S4,-0.9385650698333339
27545,Dy2Fe12P7,-0.7070635601587298
27546,CsMnH4(OF2)2,-2.1169955586135054
27547,Sc2InNi2,-0.5246507119999997
27548,TiP2Cl8O3,-1.9405465960714292
27549,Te2Os,-0.353826010833334
27550,Cs2Sn2Hg3S8,-0.7879107417241377
27551,GdZrRu2,-0.4343959875000003
27552,Zr2CoSi2,-0.8668122170000003
27553,Tl2Pd,-0.12444613555555506
27554,LaPmGa2,-0.5619730143749999
27555,Ca2Os2O7,-2.237136551363636
27556,Sb2MoSe,-0.48475255808593776
27557,Sn3Pt2,-0.5030250160000002
27558,CeSi3Ir,-0.8387674170000011
27559,KGa(SeO3)2,-1.7044555287687502
27560,Li2CdPb,-0.2722162066666667
27561,GdLuRu2,-0.35406063999999837
27562,CaInAu,-0.6677990175000001
27563,Sm12(MnC3)5,-0.27344834405172413
27564,Sr2NdBiO6,-2.7857633273333335
27565,MnFeAs,-0.1988801876436794
27566,KBi(PS3)2,-0.8134605578416668
27567,KFe(SeO3)2,-1.5718273230187498
27568,LaNiC2,-0.2548051637499995
27569,KVBP2HO9,-2.6177343205888888
27570,MgVRu2,-0.1805969024999996
27571,Rb2MnCl6,-1.8395577881034475
27572,NdCdAg2,-0.28246655333333326
27573,ScMnRh2,-0.620035328232758
27574,HoSi3Rh5,-0.9608942300000007
27575,YbCuSb,-0.784872848333333
27576,TiAl2Zn,-0.38783133833333316
27577,KBa2(PO3)5,-2.918281351942029
27578,Tm2CdCu2,-0.3030887286666662
27579,Ce(AlAu)2,-0.6968909259999997
27580,Tl3CrF6,-2.4512731975
27581,Zr3O,-1.5452611012499995
27582,LiTb(CuP)2,-0.803541693333333
27583,Na2Zn(SnS3)2,-0.9801742592594042
27584,Sb2Se3,-0.5387494324062494
27585,Tb8Ga3Co,-0.393763793958333
27586,NbInSe2,-0.9219959836718745