,formula_pretty,formation_energy_per_atom
13670,PrAgHg2,-0.3637578729166666
13671,Ca7Ni4Sn13,-0.48876266937499996
13672,Yb6Ta4Al43,-0.2479519353773588
13673,Y4CdPd,-0.4582248540277778
13674,MgPd2Au,-0.5102146824999996
13675,GdFeC2,-0.22944685500000084
13676,YbRh2Pb,-0.5136698924999994
13677,Ba2ScO3F,-3.588650963214287
13678,NpSe3,-1.225057957695313
13679,Ca(PRu)2,-0.9265475773333336
13680,Ta2MnRe,-0.32315684323276095
13681,Co3Se4,-0.5582958163392858
13682,Tb3NiGe2,-0.7836529341666664
13683,LiY(WO4)2,-2.6577095175000003
13684,Li2Te2O5,-1.8578830415740752
13685,BaCu(SeO3)2,-1.7332333029687503
13686,NaCd(PO3)3,-2.5230732945751244
13687,Pr5Bi3Br,-1.0688285263888884
13688,K2ZrF6,-3.6618721834444443
13689,CsInP2O7,-2.6084313040543363
13690,La2BiO2,-2.976757760000001
13691,CoCuNiS4,-0.6611903860714291
13692,DySiIr,-1.0658426074999998
13693,Ba6Nd2Fe4O15,-2.6816940933333333
13694,PuSn2,-0.399065516666667
13695,HoNiO3,-2.510290503000001
13696,Nb4CoS8,-1.3159687965384619
13697,HfGa2Ni,-0.5424468372500002
13698,CoP2PbO7,-2.3528586249242434
13699,Ca3V2(SiO4)3,-3.237476844375
13700,SrTeO4,-2.273966899861111
13701,Ce(SiPd)2,-0.8817114989999993
13702,Tm2(Ni2B)5,-0.48108926142156816
13703,Er(MnSi)2,-0.6059138291724139
13704,KZr6CCl15,-2.199429199913044
13705,BHO2,-2.2587376645833337
13706,PuBr2,-1.7914737233333327
13707,FePH2O5,-1.9891606725925928
13708,HgP14Pb,-0.012222730885416588
13709,Sb2Ru,-0.3818082916666666
13710,LiYSiO4,-3.4088637467857135
13711,USbSe,-1.024726392447917
13712,Tb2CBr,-1.107599558125
13713,EuGePt,-0.9096028749999997
13714,LaGaPd2,-0.8751725181250007
13715,ZrAlFe4,-0.2895524049999996
13716,ThTeAs,-1.3087282183333333
13717,Sc3Tl,-0.2083619870833333
13718,MnSiRh2,-0.5771979394827591
13719,Rb2Sn2Se5,-0.9910240713020831
13720,Nb(SBr)2,-1.26364124025
13721,CoSe2O5,-1.2759079615234379
13722,Nd2Ga5Cu3,-0.4726430627500001
13723,TbNiGe2,-0.7112146800000003
13724,Ba3(H6Ir)2,-0.6766220017647062
13725,Tm3B7W,-0.641421005378787
13726,Li3Yb(NO3)6,-1.3445488453571437
13727,CsSb2F11,-2.7913171518165014
13728,TcIr3,-0.1742655187500013
13729,Hf(VGa2)2,-0.3489877242857154
13730,TlAsO4,-1.4121692397222219
13731,K3GaO3,-1.8962762109285722
13732,HoTaO4,-3.7403215666666667
13733,Si2W,-0.34600080666666716
13734,ThIr,-1.0258815075000012
13735,NaLiS,-1.3737500176700188
13736,Gd3ScS6,-2.3495505748750007
13737,Rb2LiInCl6,-1.9811314888333331
13738,ScTc2W,-0.23081925374999912
13739,RbIn3S5,-0.9978223977546294
13740,VCdBiO5,-1.97990670234375
13741,VCl5,-1.473963118333333
13742,Gd3Sc2Al3O12,-3.792268187125
13743,Tm2PdRu,-0.7343166470833333
13744,SmCoO3,-2.5725162399999997
13745,SCl,-0.47402079656249985
13746,Ca4Be3AlSi9H3O28,-3.155372543749999
13747,Pr7CoI12,-1.4724240735000003
13748,V3S,-0.6716411742187498
13749,Dy6FeBi2,-0.41920641000000025
13750,Tm(GeRh2)2,-0.7742503984523808
13751,Cs2NaYCl6,-2.500334952908046
13752,Dy(AlC)3,-0.29084638857142814
13753,CaBe13,-0.09797634571428608
13754,Na2(ReSe2)3,-0.8595290208787222
13755,Er3Pt4,-1.254841055
13756,SmZnSn,-0.6331180608333332
13757,LuNiGe,-0.8156618791666664
13758,GdSnPd2,-0.8401439062499989
13759,ErTiGe,-0.6964122144444455
13760,K2Ni(NO3)4,-1.193754309263158
13761,Li2HgO2,-1.5036577303333332
13762,Sm5(Sn5Rh2)2,-0.7214572402631579
13763,Lu(SiPd)2,-0.8999725860000005
13764,CsS,-1.1846206655280174
13765,Cr21(MoC3)2,-0.08686200137930984
13766,Yb2Mn3Sb3O14,-2.311504164263323
13767,Nb3P6WO24,-2.78104306882353
13768,ErAlPt,-1.168805355833334
13769,SmPPt,-1.3419914227777774
13770,TmCuPbS3,-1.3513469335069448
13771,Cs4TlSbCl12,-1.7406985602809708
13772,Sr3InNiO6,-2.4139094259090914
13773,Cs3B3Se10,-0.8408346271706622
13774,Ca2AsClO4,-2.7546291496874997
13775,LiInAu2,-0.4074551083333331
13776,Tb2TlHg,-0.4198126520833334
13777,Ca10Mg2Sb9,-1.0090086958333329
13778,KPr9(Si3O13)2,-3.6173375132857153
13779,LaSiIr,-0.9968843783333341
13780,NdNiGe,-0.6950932266666664
13781,V2SiPb5O12,-2.1545161732500007
13782,MgCr2O4,-4.417696474999999
13783,K4PbO4,-1.5853561968888887
13784,NiMoO4,-1.7472293791666662
13785,CaBi2,-0.5334797416666669
13786,NaTb(Pd3O4)2,-1.4451610647844824
13787,CeGe3Ru,-0.602727028999999
13788,Cs6Br4O,-1.8303711915987464
13789,Ba2AlCu2F11,-3.2448368621354167
13790,CsPaO3,-3.466064434586208
13791,K3ErSi3(HO5)2,-2.8633362571842103
13792,Co3S4,-0.7257409746428566
13793,Te3P2O11,-2.008619984479167
13794,Rb2GeO3,-2.056581764027779
13795,DyAlSi,-0.5976446066666666
13796,Na2TeO4,-1.8153435915147778
13797,TaAlOs2,-0.5515878725000007
13798,Yb5Pt2,-0.8482687407142855
13799,CsRe6Se8I3,-0.8115439523156122
13800,Na8Al6Si6SO28,-3.0198455570518123
13801,TiSiOs,-0.7631681155555567
13802,LuBrO,-3.3572670374999998
13803,GdNiPb,-0.4095338691666666
13804,Be(PN2)2,-0.8963482514285718
13805,LiTmSiO4,-3.4412679653571425
13806,Zr3(Ni10B3)2,-0.4498088467241383
13807,LaHoSi2O7,-3.676125020681818
13808,TmAg2,-0.33756369999999986
13809,Tl7Sb2,-0.05898891888888876
13810,KScBP2HO9,-2.876370247922223
13811,AlZnCrS4,-1.1785388239285715
13812,HfTlF5,-3.585455517261906
13813,Sr2MnClO3,-2.7335007151806243
13814,Er5Sn3,-0.7085839300000005
13815,CsGdO2,-2.9143679057327594
13816,SbP(OF3)2,-2.6806682868333334
13817,Tl2Cu3(SeO3)6,-1.1508715862320409
13818,TmMn12,-0.014632259372237836
13819,NaCu3F7,-2.0479590258228844
13820,Hf4Al3,-0.3938477414285718
13821,Ta3Sb(PO4)6,-2.8672331832352937
13822,Zn2Ni21B20,-0.2615451233333329
13823,U(Zn10Co)2,-0.09700401847826118
13824,Cs2NaErCl6,-2.504479920241379
13825,B4OsW,-0.28911482527777704
13826,LiLuGe,-0.6910290416666661
13827,Na2TlHg,-0.18015059285919532
13828,U6Fe16Si7C,-0.3998742923333339
13829,Lu2CdS4,-1.9596177767857148
13830,Eu2HoTaO6,-3.5822276805
13831,H4NCl,-0.7627232008333333
13832,Ba6Na2Mn2Ru2O17,-2.338574559274673
13833,LiCaAs,-1.0586200469444442
13834,UAsSe,-1.1254355841145838
13835,Na3SbO4,-2.0057089855818964
13836,CsCuPSe3,-0.7505497484659364
13837,Yb11AlSb9,-1.0573015373809518
13838,ZnNi3N,-0.22090197699999975
13839,Sr3BeB6O13,-3.130573103913044
13840,Mg3(Ni10B3)2,-0.31041231465517205
13841,K2NbCuSe4,-1.174614740671875
13842,NdCdAu2,-0.6489069874999998
13843,NpSb3,-0.29275415968750007
13844,LiAc2Pb,-0.2657519795833334
13845,La3Ta(Cl3O2)2,-3.234688376428572
13846,Mg2Si,-0.128726743333333
13847,EuCrHO5,-2.1341073784375
13848,Lu6WO12,-3.776254805263157
13849,DyCuSi,-0.6462339333333329
13850,Lu3O2F5,-4.404277410249999
13851,RbTi5Se8,-1.4803727052083329
13852,Sc6NiTe2,-0.7810607566666674
13853,Sr2P7Cl,-0.837049088791666
13854,ErCu5,-0.19505103333333315
13855,K2Hg7,-0.21461143677777775
13856,MnSiTc2,-0.3684635094827584
13857,Hg4BiSe2Cl5,-0.9367760324739584
13858,Tm2RuPt,-0.8799001820833334
13859,Sr3ZnIrO6,-2.4064224377272736
13860,Ba2NiWO6,-2.5636601604999996
13861,Y5Sn3,-0.7700553785416675
13862,Gd3AuO6,-3.0899255110000015
13863,EuMgTl2,-0.30595095541666595
13864,GaAsPd5,-0.494828573214285
13865,Sm(Al2Fe)4,-0.4157499442307693
13866,LiMnRhO4,-1.771844245180623
13867,BaMo2Se2O11,-1.9367085887304683
13868,TbSi3Ir,-0.7922178299999999
13869,Li2BeH4,-0.4013912082738099
13870,La2Sb,-0.9724194549999995
13871,LiRh2Pb,-0.23775835833333403
13872,PrVO4,-3.166064829166666
13873,Ga9Rh2,-0.3451339402272728
13874,Pm3Hg,-0.15622489437499976
13875,Er2Ni7,-0.40960230999999997
13876,TbH(CO2)3,-2.0563936904545455
13877,EuAg5,-0.17186891638888882
13878,CsMgAlF6,-3.7410583303256697
13879,Sb2TeF14,-2.573814260588235
13880,Cs2Tb6Te7N2,-1.686815287403651
13881,TmSiPt,-1.209717758055555
13882,FeTc2Ge,-0.07508217124999916
13883,Ba5Li2(WO5)3,-2.7825858074666665
13884,K2CO3,-2.1173924255833327
13885,Cu4SiP8,-0.12774671089743622
13886,PmNdZn2,-0.3205137743749997
13887,Ba2PrSbO6,-2.9959145005000005
13888,Ho2SiO5,-3.802344439375
13889,Dy2C(NO)2,-2.4933688085714283
13890,RbI,-1.6958277512500002
13891,Ca5(GePd)6,-0.7889428041176463
13892,Lu2(Ga3Rh)3,-0.6733106701785709
13893,CuMo3Cl7,-1.2454242453409092
13894,ThB2Ir3,-0.701011988055555
13895,SrTa2Bi2O9,-2.839413962619049
13896,Hg3SO6,-1.189662532145834
13897,Na2TeH6SO10,-1.625899851311423
13898,BaO10,-0.6015701499999999
13899,Eu3NbO7,-3.2019420009090904
13900,Pr5Si2Se3O17F,-3.018743758733259
13901,Cu2P8Se3I2,-0.2801270474131949
13902,LiPaPt2,-0.7959746633333333
13903,LiNpRh2,-0.3610615030208342
13904,K2TeH6SO10,-1.655724372206251
13905,Na2TeS3,-0.9181547774964086
13906,YSiPt2,-1.1586592147916672
13907,Dy2Co17,-0.0983912439473688
13908,Tl3GaF6,-2.41224865525
13909,Sm(SiIr)2,-1.0510170229999987
13910,Hf2InCu2,-0.22148369649999963
13911,NdScO3,-3.8964648224999996
13912,RbGaCl4,-1.9096354766666668
13913,KTa2PO8,-3.106036018027778
13914,HfBe13,-0.17547949607142904
13915,Ta4MnS8,-1.3722861798408483
13916,Sc3(Si2Ni)2,-0.810268968611112
13917,V2SnO7,-2.2590000957499994
13918,NdMgAu2,-0.733521825
13919,NbSeCl3,-1.5638263454687498
13920,LaIr2,-0.7383099283333342
13921,Mg3Ru2,-0.14328825950000024
13922,K2Te4O9,-1.682214165566667
13923,KP4N7,-0.697791419069444
13924,TiPO4F,-3.167649186309524
13925,Ba(BSe3)2,-0.890381755266204
13926,RbMnBr3,-1.5331213702528739
13927,Sb2Te2O9,-1.6737423130769238
13928,KLa(WO4)2,-2.683586894416667
13929,Tb2Te4O11,-2.30456686882353
13930,Hf5Re24,-0.26116378275862095
13931,LuBi2ClO4,-2.48207810375
13932,Sr4ZrN4,-1.0836755107407414
13933,KAgSe,-0.822426855670139
13934,LaBi2ClO4,-2.4272937968749995
13935,Th(NiP)2,-1.0484104463333324
13936,NpGa4,-0.16559201175000027
13937,RbYS2,-2.1025491076041667
13938,Pr5Sn3,-0.6806266531249996
13939,HoAlAg2,-0.33572600583333356
13940,K4Zr6FeBr18,-1.8114351257586208
13941,FeSb3(PO4)6,-2.346055498235294
13942,TbSi2RuRh,-1.0092252229999985
13943,KPtN,-0.2088451726666669
13944,Pr10S19,-2.125233231012931
13945,CsNaSnF6,-3.0273565525814172
13946,Ba2LiGe3,-0.5645172643055556
13947,La(Co2B)6,-0.3478150394736827
13948,Ba2PrNbO6,-3.3558744005000007
13949,RbGdS2,-2.1033911559375005
13950,EuAgSn,-0.4780472255555554
13951,Ce3(SiRh)2,-0.8363304732142852
13952,Ba8Sn4S15,-1.7326366271990734
13953,KTl(SO4)2,-1.8337132802152774
13954,PmZnRh2,-0.5221306493750006
13955,Ce(Cu2P)2,-0.5202030219047615
13956,Na2ZnP2O7,-2.5552497553975093
13957,NdCd,-0.31844852
13958,Ti2Sb2Pb4O13,-2.264346311984128
13959,Ba3B3Pb2ClO9,-2.765462399861112
13960,FePH12(CCl)4,-0.5281897033333329
13961,PrGaGe2O7,-2.5865309606818174
13962,Sc2Fe3Si5,-0.6548991472500006
13963,KBi(PO3)4,-2.5507116860462964
13964,LiTmTl2,-0.29778022916666647
13965,Na3As7,-0.26878671209051747
13966,KGe2N3,-0.29947553383333175
13967,Ba(CuS)2,-1.1269614682499998
13968,Rb2PH4Se3O2,-1.1392606591970484
13969,Na5GaGe2,-0.12783755503232763
13970,Er2Ga3Co,-0.577480777916667
13971,Ce(GaPd)2,-0.7662341799999993
13972,Ba4Gd(CuO3)3,-2.3701912814705888
13973,RbZn4As3,-0.3010384315625001
13974,K6U5As2O23,-3.0031507674444433
13975,CaB8H4O15,-2.6028909854761904
13976,Ho5Ge3,-0.7985507668750005
13977,K2(CuTe)5,-0.5465985638333333
13978,LuMgTl,-0.2574957711111108
13979,YbAlO3,-3.203856184
13980,TaTe4Cl4O,-1.2831662942500004
13981,CaGaAu3,-0.578729362
13982,NaSn2Pd3,-0.4808854944252878
13983,Ti6O,-0.9166954207142847
13984,TaIr3,-0.7005889100000005
13985,Sm2Co3Ge5,-0.5864839105000001
13986,Nb2N,-0.9958357816666658
13987,PrNi5,-0.2609621258333341
13988,MgAlPO5,-3.1585706351041676
13989,KBaMnO4,-2.229073731561577
13990,Co2GeO4,-1.6629309657142863
13991,K3Ce(PO4)2,-2.9549832757619043
13992,SrNdCuS3,-1.9102973718402783
13993,Nd2Fe12P7,-0.6460399449206361
13994,Mn2PHO3F2,-2.4040803018550445
13995,KPrS2,-2.0842052435625
13996,AgClO4,-0.4157985444444445
13997,Gd3S3N,-2.25664949919643
13998,KNb2Cl11,-1.8312615102142853
13999,CaTiN2,-1.537058125833334
14000,Cu3Ge,-0.005706961250000475
14001,YAgS2,-1.5715883133333337
14002,HoTlSe2,-1.6132276595052084
14003,Cs2SiP2,-0.4674081195057468
14004,PrCl3,-2.7581206037499992
14005,Dy(SiOs)2,-0.7240364459999995
14006,Rb2TeH6SeO10,-1.4965137167421871
14007,NdCdPd,-0.6683904966666666
14008,TmCo5Si3,-0.602159393333333
14009,As2Pt,-0.5176526591666661
14010,Li3Mg,-0.033834482500000096
14011,Er4BClO7,-3.7511469626282046
14012,CsCoCl3,-1.5571491215862068
14013,Sr2LuBiO6,-2.8923556298333337
14014,YCoB4,-0.5814485009722219
14015,YUPd6,-0.7340878383333331
14016,Na2Mg2P3NO9,-2.687112984006086
14017,ZnFe2(P2O7)2,-2.4136802170634915
14018,ZrCd2H12(O3F4)2,-2.0092228334482765
14019,CeCo5P3,-0.8158054908333349
14020,Nd(ClO4)3,-0.9847885503125005
14021,Hf2Co4P3,-0.9979269380555564
14022,Ba14MnBi11,-0.8781231804011939
14023,CaAu,-0.81060321
14024,SrGa2(SiO4)2,-2.9877691193589735
14025,K2SmF5,-3.7415960048125005
14026,LiAlS2,-1.531454996770834
14027,Sr(SnAu)2,-0.5590349753333335
14028,CsGeCl3,-1.7127202245862065
14029,HoGa3Os,-0.4857534768333333
14030,P2Pd,-0.429536005555556
14031,LiGaGe,-0.26736549027777795
14032,Sr(AsPd)2,-0.7756554633333337
14033,KLiZn3O4,-1.815451829592592
14034,Rb4SbO4,-1.6659917963888888
14035,NaNO3,-1.367392630310345
14036,AgBi(IO3)4,-0.9259758920370373
14037,Co(ClO4)2,-0.5625575988636368
14038,AsSe(BrF2)3,-1.79981594453125
14039,ScMn2SbO6,-2.5188294290862077
14040,K3BSb4O13,-2.122079253246033
14041,LaAlGe2O7,-2.8793963297727263
14042,Cu2P8Se3Br2,-0.34169949124652704
14043,K2Cu(PO3)4,-2.483162516807017
14044,La3Co,-0.10140989875000006
14045,Sr2CoSi2O7,-3.094595780069445
14046,KAuF6,-1.8234618122499997
14047,SrSmAl3O7,-3.5609661188888886
14048,Ca(GeIr)2,-0.6665676379999994
14049,LiHF2,-2.540591888333333
14050,MnSe,-0.5932660751373922
14051,DyVO4,-3.211174731666668
14052,CsICl2,-1.4174641757327586
14053,Dy3Sc2Al3O12,-3.8243481173750005
14054,HgTe,-0.3794617574999999
14055,Rb2NaFeF6,-2.951095510655173
14056,HgBr,-0.6920993337499999
14057,LuZn2,-0.38110480333333346
14058,U2Co12P7,-0.6784616425396829
14059,ErCdGa,-0.49559296472222214
14060,ScHCl,-1.6241908683333328
14061,TaI5,-0.7702247185416672
14062,Cs2AsH3SeO8,-1.6246413175470547
14063,Ta4FeS8,-1.3190570223076923
14064,Y(ZnP)3,-0.6083417202380953
14065,Tb(SiPd)2,-0.922792956
14066,Ca5Ge3H,-0.6515217083333336
14067,NdRhO3,-2.4951632685000007
14068,NdPIr,-1.1464205044444438
14069,Tl2Hg2PdCl8,-1.1023825543589747
14070,Na2Zn(SiO3)2,-2.7161202030094045
14071,Gd3Te2NO,-2.3303854607142864
14072,Y(PO3)3,-3.0154558927243604
14073,Tm2(Ni7B2)3,-0.3582183482183909
14074,Be3Ni,-0.2836857012499996
14075,LiFe(PO3)4,-2.550173039537036
14076,Al2CuIr,-0.672348992499999
14077,K3Na8FeH12S6(NO18)2,-1.817066575002409
14078,UGaPt,-0.6370151802777776
14079,Yb3(P3Pd10)2,-0.7161095975862062
14080,CsGd(PO3)4,-2.9127032114591316
14081,Ca3Si(ClO2)2,-3.2808407765000007
14082,LaGaPt,-1.0417434241666672
14083,EuGaSn,-0.573587668333334
14084,Eu5Si3O12F,-3.4920384074999995
14085,Sc2Te,-0.9620768402777773
14086,Fe(SbO3)2,-1.8695332930555553
14087,LaSmS2,-2.3481264815625007
14088,LaMg3,-0.13245981624999992
14089,LaSi2Pt,-1.03657272375
14090,Nd4MgRh,-0.3401835445833334
14091,KMg(PO3)3,-2.80656008557143
14092,La3Tl,-0.24025491708333302
14093,Tb11In9Ni4,-0.5114703866666664
14094,Dy(CoB)2,-0.5651245376666665
14095,Rb2Ti(CuS2)2,-1.2768173450925926
14096,Mg2Mn(PO4)2,-2.8943998841998235
14097,Li2AlGa,-0.2602442335416666
14098,PrFeSi2,-0.6033245912499998
14099,CsCaBr3,-2.306552198086207
14100,HfIr3,-0.8170678300000009
14101,NaCNO,-1.2121598966379308
14102,Tm(IO3)3,-1.4767328862820528
14103,NdAlPd,-0.8044255966666667
14104,K2SrV4O12,-2.566687879877194
14105,K2PdSe2,-1.0857849881375
14106,AuSCl5,-0.6897671968750002
14107,DyCoSn,-0.48929794750000016
14108,Eu(GaTe2)2,-0.9623353614285719
14109,LiB13C2,-0.16437558359374904
14110,NdSbTe,-1.383590223333334
14111,Ca2Ti3O8,-3.55591127
14112,KBa6Zn4(GaO3)7,-2.4724574664230774
14113,UWC2,-0.30841227250000003
14114,Na2Gd2B2O7,-3.1339020887643674
14115,Fe2SiO4,-2.301361510714286
14116,Y3(Ge3Pt2)2,-0.8756156626923072
14117,La3InC,-0.3204495569999999
14118,ZrGaRh2,-0.8319622643750009
14119,Sm(AlAu)2,-0.7379392290000005
14120,CsPS3,-1.004984896127874
14121,Te3As2O11,-1.5593706774999996
14122,Tl3PdBr5,-0.9988295044444446
14123,Rb8Zr6BeBr20,-1.841729020428572
14124,Hf2As,-0.8038977786111113
14125,Zr3Ge,-0.5469298771875009
14126,Y3GaS6,-2.0331108696249998
14127,Gd4Au2O9,-2.815371157500001
14128,Pr2Co14B,-0.10506298877451022
14129,Sr2DyBiO6,-2.857855403333333
14130,ScGa,-0.6025011662499997
14131,Rb3AsSe16,-0.7085551007500005
14132,CaV2O6,-2.699836805555556
14133,Yb4Cl6O,-3.039789447727273
14134,SmZn,-0.3296865924999999
14135,YbZnGa,-0.49568328083333313
14136,Ba5Sm8Mn4O21,-3.2133342846506348
14137,Li2Mn3CoO8,-1.9528381511042707
14138,KLi6BiO6,-1.9866970273571423
14139,InSb,-0.20905340000000017
14140,TmSeClO3,-2.501177135668403
14141,Tl2Sn2S3,-0.6204597301488093
14142,Y12Al7Si,-0.4122699127499999
14143,Lu5(In2Ni)2,-0.5177880504545459
14144,Sb2XeF16,-1.9414461465789477
14145,CaPrTi2O6,-3.5865394991666664
14146,SrVF5,-3.6626671416666667
14147,Pr2InAu2,-0.7605891989999997
14148,Ba6Gd2Ga4O15,-2.974123864074074
14149,Tm2(Al3Rh)3,-0.8197759234523809
14150,Rb3YbV2O8,-2.4966294880357145
14151,SrGa3Pd,-0.6148871818333326
14152,Li2ZrO3,-3.0402037461111107
14153,U2Cu3Si4Ni,-0.3565691259999987
14154,ZnCoTe3O8,-1.545601407115385
14155,Na3Cd,-0.03821602741379304
14156,Cd2Tc2O7,-1.6938978649999994
14157,NdGa,-0.5881819737500003
14158,Tb5(Ge5Ir2)2,-0.7821789086842099
14159,In,0.0
14160,Sm10Pd21,-0.8507029748387098
14161,Sr4LiCu(CO5)2,-2.5278763994444446
14162,Sr5(SnAs3)2,-0.8978376471794877
14163,KMo2(P2O7)2,-2.5571650288730154
14164,TlAsF6,-2.472709066666667
14165,LuNb6Cl13O3,-2.127864040217391
14166,Zn2TeBr2O3,-1.5094779170312496
14167,LiFePHO5,-2.2401220418518526
14168,K3LiGe4,-0.2573384102916667
14169,ScGaCu2,-0.3811806931249997
14170,KMn5(SeO3)6,-1.6566632282239218
14171,Ga(IO3)3,-1.0737182925000004
14172,Na3Al(AsO4)2,-2.252215056403941
14173,H4SO5,-1.4819498313125004
14174,Mg3Nb6O11,-2.7662575947499994
14175,LiUF5,-3.7510525683333347
14176,Li7La3Zr2O12,-3.135924410347222
14177,LiZr5TlF22,-3.840717523333333
14178,Li2Se,-1.417794186336805
14179,TiB2Mo,-0.8151458229166675
14180,Hf2CoCuSn2,-0.3806074441666662
14181,Ce3Bi4Pt3,-0.8598253779999994
14182,HoGeAu,-0.8215218333333336
14183,Mn4Al11,-0.27699086678161017
14184,TaPd3,-0.48461696249999964
14185,Sr2GeS4,-1.6862268551190474
14186,Cs2RbScF6,-3.5581126673362062
14187,Eu2TeO2,-2.7175559199999997
14188,Sc2TlAg,-0.3029024825000004
14189,Ba3In2WO9,-2.6102182916666665
14190,K4P3,-0.37368449742857124
14191,LaB4,-0.564821469333333
14192,YbSeClO3,-2.022664974140625
14193,AuSCl7,-0.7190047617361112
14194,ZnAu3,-0.14774798374999998
14195,Sr4I6O,-2.1863997846969694
14196,PmTl3,-0.3087818118750003
14197,RbGeB3O7,-2.642318686041667
14198,Ti2TlC,-0.5738722387499999
14199,LiGaPt2,-0.7147969577083337
14200,PrSn3,-0.5075069125000002
14201,SiO2,-3.2671791933333334
14202,KBi3F10,-2.844809265571429
14203,BPH4NO4F,-1.921694875416667
14204,SiPb4(ClO)4,-1.9821566059615394
14205,Tm2RuAu,-0.6493913195833327
14206,TbSbPd,-1.082878183333334
14207,BaNiSn3,-0.47533043500000005
14208,Y2CuRu,-0.31984206708333396
14209,H9Au(ClO)4,-1.1263958980555562
14210,VW,-0.06853693999999955
14211,TbCdAg2,-0.287119085833333
14212,CeGeAu,-0.7465110149999999
14213,Hg3(SF)2,-1.0261708230357143
14214,Hg3(SeCl)2,-0.7403096263839285
14215,BH3OF4,-2.2878166510185185
14216,U8NiSe17,-1.399708009993991
14217,Yb(ErS2)2,-2.4209644825
14218,Lu6FeBi2,-0.4144975766666658
14219,MgFeP2O7,-2.683261552651515
14220,YMnSi,-0.5635409348658994
14221,Li2PmGa,-0.2776991004166667
14222,PmLuTl2,-0.3196829010416664
14223,OsCl4O,-1.0361541062500006
14224,Ti2InC,-0.668792704166667
14225,La2SnS3O2,-2.4934141433593755
14226,PmSmZn2,-0.32607027312500003
14227,Ba2SmMoO6,-3.0179787545000005
14228,GdNi2B2C,-0.49811441638888826
14229,Ba5Nb4O15,-3.271555790208333
14230,K4Zr5O12,-3.266745256285714
14231,HRh,-0.030642932499999276
14232,B2O3,-2.79805631
14233,Li2MnF5,-2.9982286146372132
14234,RbTh2F9,-4.290536264791668
14235,CaV2(PO5)2,-2.8107134951111115
14236,HoSiIr,-1.079794944166667
14237,Ba3InIr2O9,-2.1490786970000006
14238,Yb11Bi10,-0.7884462102380956
14239,K6InAs3,-0.4143710143
14240,K2Co(SeO3)2,-1.6137792941534088
14241,ZrGeRu,-0.7903092327777791
14242,MnH2SeO5,-1.4584797980860875
14243,Ce2Br5,-2.1947428003571434
14244,Mg(SbO3)2,-2.2272934322222215
14245,Ta7Fe6,-0.18267561230769266
14246,MnGa,-0.1402858277155179
14247,K5Na(Ti2Se9)3,-1.1957314623034097
14248,Ca3AsI3,-1.6876547132142856
14249,CsUAgSe3,-1.2800832352714913
14250,Pr2FeSbO7,-2.788126994090909