,formula_pretty,formation_energy_per_atom
15416,Tl2Hg3Se4,-0.46874655622685185
15417,LuSiPd2,-0.9942965618749993
15418,CsAgO,-0.9973837940325669
15419,MnAsRh,-0.3472185076436792
15420,KFeNi(PO4)2,-2.35203689824359
15421,Sm3Ga2Sn3,-0.6882729243750001
15422,CsAgCl3,-1.4489478609195405
15423,LiHoSn,-0.6422859269444441
15424,Yb2AsAu,-1.08408882625
15425,Ga3Ni13Ge6,-0.340010464659091
15426,Zr3Fe,-0.10947078500000096
15427,HoAlRh,-0.9312864758333331
15428,Li5In4,-0.2820955807407404
15429,TlIn(PSe3)2,-0.5606712004062502
15430,Mg3Si(O2F)2,-3.4183188115
15431,VSnRu2,-0.21295188625000083
15432,Na7As11O31,-1.8280506485550083
15433,NbInO4,-2.624674435833333
15434,PH4N3,-0.5136750288541663
15435,Ti13Al9Co8,-0.5200541664444444
15436,Al2Ge2O7,-2.702367327272727
15437,Pr(CoB)2,-0.47285984666666536
15438,Cs2Na3InO4,-1.6229537183017242
15439,GdCdPd,-0.6852764777777788
15440,La5PPb3,-0.8627075081481479
15441,CeB2Ru,-0.5850618177083327
15442,K2PdCl6,-1.5522497251111105
15443,CuBiS2,-0.5270732028124998
15444,V2Hg2O7,-1.7159359913636372
15445,Cs3VSe4,-1.2754850853960131
15446,CsSb,-0.534668233340517
15447,Li3InN2,-0.44553923750000024
15448,Ba3B6H2O13,-2.8826527683333336
15449,TlSb(PSe3)2,-0.48666420390624976
15450,RbSm2Ag3Se5,-1.3385950853835233
15451,NdEu2BeO5,-3.3898969255555564
15452,Sr5Mn4CO13,-2.600103703915543
15453,CsEr(WO4)2,-2.6479567664942523
15454,Sr2CdPt2,-0.7371473846666667
15455,CuS,-0.44523708822916674
15456,YAl2,-0.531332202222222
15457,Eu2CuO4,-2.582190597142857
15458,Cs3FeSe3,-1.0721399208320506
15459,ErFe2SiC,-0.5235246110000006
15460,Cs2Sb,-0.4408106782040229
15461,GdCrGeO5,-2.8157706109374994
15462,AcYbRh2,-0.5652257831249994
15463,Nd3Rh2,-0.6155626340000008
15464,K2AgSb,-0.4572191206666667
15465,Na3HoCl6,-2.365621159465517
15466,Er2B2Cl2O5,-3.27238317030303
15467,K2SiO3,-2.675046079750001
15468,VFe2BO5,-2.2173668643518534
15469,LiZn2Ni,-0.25589050333333363
15470,HoMn6(Sn2Ge)2,-0.2262893028912469
15471,ZnGeP2,-0.20997244916666702
15472,Na9Sn4,-0.18139770299734737
15473,Ho(FeB)2,-0.4449546616666666
15474,TmBrO,-3.3632881797222223
15475,PmCdAu2,-0.656133809375
15476,K4Ba(GeO3)3,-2.2860541524705886
15477,NbFeO4,-2.4938831366666663
15478,Cs2PbClF6,-2.2711033470862065
15479,SmHg2,-0.41367023833333355
15480,LiV2P5O16,-2.684352845625
15481,HoInIr,-0.7095759055555556
15482,LiPd,-0.4377072416666663
15483,Tm2Mn(GeO3)4,-2.681679715592862
15484,Ca2As2O7,-2.511705987727272
15485,GaTe,-0.5750923537499997
15486,Ta2PdSe6,-1.0040653226736111
15487,K6Na4Tl13,-0.1236974116321839
15488,Nb5(CuSi)4,-0.47822622846153706
15489,Sr2VCO3F5,-3.2799583684027787
15490,KTiPS5,-1.2433153969114583
15491,Gd2AlCo2,-0.36050406600000146
15492,Ba3ZnRu2O9,-2.2338732253333347
15493,Ti3Ga,-0.3213696256249996
15494,Na2TlSb,-0.3634825641091952
15495,Ca2ScOsO6,-2.9151600065
15496,SrMgTl2,-0.28412524583333365
15497,MgPd5,-0.3342731349999995
15498,BaEuFe2O5,-2.369631245555557
15499,TmInPd2,-0.8490024216666665
15500,Na3(CuO2)2,-1.3834157238505744
15501,Ca2Ga7Au,-0.4430309622500001
15502,SnPHO5,-2.2314857179166676
15503,Ac2AgIr,-0.37206670541666753
15504,Zr2V3Ru,-0.2576824800000009
15505,TbCuAs2,-0.8271854075
15506,Dy5Pb3,-0.53620070875
15507,La(Al10V)2,-0.2122738960869567
15508,Sm2Ge2O7,-3.0014005979545457
15509,BaZr4(PO4)6,-3.260472880000001
15510,Nb2SnO6,-2.7461501200000007
15511,TaAlRu2,-0.7477774000000004
15512,Cu3PSe4,-0.3757669647135411
15513,Ba14Ir8(PdO11)3,-2.1162690337643677
15514,Ge3(BiO3)4,-1.930595065526316
15515,Pr2Zr2O7,-3.832060139090908
15516,Rb3PuH4O7,-2.045335108666667
15517,NaYMnWO6,-2.6797444386149416
15518,RbHgSbTe3,-0.6022626187499999
15519,Tb4Ga12Pt,-0.6383291358823525
15520,Li2InAu,-0.4769263791666667
15521,Ba3Si4,-0.36752427071428634
15522,Mg149Rh,-0.03146032286666658
15523,Ba8CaY2U4O24,-3.572710241880342
15524,TiGaNi2,-0.5409975902083337
15525,Mg(AlS2)2,-1.4780865375000007
15526,Ce2In8Pt,-0.4342383372727273
15527,SmB2Rh3,-0.6756370422222228
15528,Tb2MgSi2,-0.6878237769999999
15529,PaAgO3,-2.838398090333334
15530,CsMgAs(H6O5)2,-1.5892312833172424
15531,CsK5Ru2O9,-1.6595593151724142
15532,Mg2Cu,-0.11874911666666677
15533,GaH6C2SeI3,-0.3957014744110579
15534,Nd23Cd4Ru7,-0.24908539426470563
15535,Y6RuI10,-1.43602336382353
15536,Ho2Nb3Ge4,-0.7409926930555552
15537,PrTl,-0.3939205741666667
15538,Tb(Co2B)6,-0.3497006844736835
15539,SiAg6SO8,-1.2899291226953125
15540,Lu3SbO7,-3.469872921818181
15541,PaH3,-0.48465480156250074
15542,Tb2Ge5Rh3,-0.7919477845000003
15543,TmIn,-0.4037805683333331
15544,Bi(W2Cl5)3,-1.1902100085227274
15545,TaInRu2,-0.32908671000000034
15546,Sm4Ga16Co3,-0.5131508197826081
15547,VAgO3,-1.7453310388333336
15548,KSiHO3,-2.5242635977916663
15549,Yb6P19Rh30,-0.9387954500606053
15550,NdGaGe2O7,-2.5918363859090907
15551,Mg3V2O8,-2.759952680000001
15552,Nd4Sb3,-1.1442134935714283
15553,Al2Hg3Cl8,-1.517737277307692
15554,Hg2GeSe4,-0.5041013620535709
15555,UVC2,-0.38562964312500014
15556,Dy2CdCu2,-0.2979911179999995
15557,Bi2S3,-0.6439653858749999
15558,ScGeOs,-0.6284179172222224
15559,BaZnCl4,-2.2680713291666668
15560,Ce2Si2Sn,-0.6102336700000002
15561,K4Al3Si3ClO12,-3.111009273782609
15562,Ca2Si3Ag,-0.4580263119444445
15563,Ta2Cr3Si,-0.3670740024999996
15564,TiMnFe(PO4)3,-2.6948856131257983
15565,NaPrF4,-3.948259569147509
15566,Ni9S8,-0.6114264955882359
15567,Cs2Zn3S4,-1.1885307831513414
15568,NbSeI,-1.01348541828125
15569,RbIn4,-0.11256841150000022
15570,TlMo2P3O13,-2.3569709992543872
15571,K2P2Pd,-0.5255519165333332
15572,Sr2Mn2SeO4,-2.4041064262821283
15573,Sm3Al5O12,-3.636221794250001
15574,Ba2ScIrO6,-2.7803716135000003
15575,Rb2NaRuF6,-2.6296292641551724
15576,LaNi5As3,-0.5898956526388895
15577,Cs2AgF4,-2.3443609196469626
15578,NdMnSi2,-0.5809343857327587
15579,Ti2AlW,-0.2539995716666663
15580,In3Pd5,-0.5214664224999996
15581,Ho2TeS2,-2.13894222925
15582,Sm(SiNi)2,-0.8063141010000002
15583,NaTl2RhF6,-2.216241373821839
15584,CsInCuF6,-2.5702147953256707
15585,Nd3OsO7,-3.0918872795454546
15586,Sm2Sb5,-0.8166024396428568
15587,V2Zn3TeO10,-2.01007503828125
15588,NaSr2AlP3,-0.8830379496264368
15589,Pm2AlZn,-0.3461551062499999
15590,Nd(GaFe)6,-0.2877722742307699
15591,VPO4F,-2.70340103654762
15592,Sm(BIr)2,-0.7413831196666664
15593,MnP2O7,-2.3839682022097697
15594,KTaW2O9,-2.5604526083076937
15595,Ba2Eu2ZnPtO8,-2.525620729107143
15596,NbNiB2,-0.6160427914583337
15597,Ce3GeS2,-1.7799733910416673
15598,Y3Sb4Au3,-0.8971420585000004
15599,Ho5In3,-0.3788549487499995
15600,ThNi5,-0.4083734416666675
15601,Hf2S,-1.1958842743750004
15602,SrTlPS4,-1.2174877094047614
15603,Nd3PO7,-3.6303245106060618
15604,TaS2,-1.3837958554166672
15605,TbMgGa,-0.4950376613888889
15606,Er6FeSb2,-0.598194285555555
15607,ScMnSi2,-0.6179433519827597
15608,CaSb2H2F14,-2.7538416246052635
15609,La2P3(HO2)5,-2.4997671067499994
15610,Li3Cr2(PO4)3,-2.6678782455
15611,MnNbP,-0.8128289754214558
15612,Ho4CdIr,-0.5325811087500002
15613,SmSiRu2C,-0.5805244549999997
15614,TmSbPt,-1.2774704755555557
15615,Y2Si4Mo3,-0.6423530798148138
15616,Ba6Pr3I19,-1.9082291416071426
15617,Ho(PRu)2,-1.0349855113333333
15618,Cs3Ru2Cl9,-1.6089189463423648
15619,KFeF4,-2.8427394417500005
15620,CsCuO2,-1.3513275119827588
15621,SrNd2Mn3O9,-2.8168366935306524
15622,Ce2Ge2IrRh,-0.8981894533333327
15623,CrSnSbO6,-2.1258781944444447
15624,Gd3NCl6,-2.5840962165000008
15625,Na3Ca(BO2)5,-2.8141101573941323
15626,MgAs2(XeF9)2,-2.067117553369566
15627,YGeAu,-0.8370383172222216
15628,Ce3SiPt5,-1.0935763627777777
15629,Ti2InNi2,-0.4070445023333328
15630,Cs3GeSe3,-1.1915436401177644
15631,La3CuS3O2,-2.7418865246527773
15632,MnP2H2O7,-2.286036198508141
15633,OsF5,-2.0448201472916665
15634,Eu(GaS2)2,-1.4333139791071434
15635,DyCoGe,-0.6608374691666666
15636,SbF3,-2.6876072443749996
15637,PrCuSi,-0.5761785533333322
15638,Ni3Te2,-0.3437374069999997
15639,Tb(MnGe)6,-0.3022838336604777
15640,Yb(Al4Co)2,-0.4306849961363639
15641,V2MoRu,-0.26164550875000003
15642,EuSO4,-2.6086559684374997
15643,Ba4SiP4,-0.970835158425926
15644,LuSnPt,-1.0732915561111116
15645,Na2Ti2Sb2O,-1.2266948021100161
15646,NpSeO5,-2.3755928015848227
15647,PrGe2Ir,-0.7913601112499995
15648,Y3Sc2(GaO4)3,-3.384037340250001
15649,ZrS,-1.6850343415625009
15650,PaHgTe2,-0.6032704187500002
15651,Mg2CoB2Ir5,-0.38291823783333284
15652,KFeBP2HO9,-2.4664615450888894
15653,Mn2InSbO6,-2.023905047086207
15654,ErZn12,-0.17259278461538477
15655,Ca3(SiP2)2,-0.8845585762037041
15656,BaZrF6,-4.130538231875001
15657,Sc2Mn12GaGe11,-0.32244286029509356
15658,Pb2ClOF,-1.9298372925000002
15659,Sr(Ag2Sb)2,-0.35775092190476243
15660,SrH3Pd,-0.5171315343333334
15661,PuB4,-0.5052714868333326
15662,Pr7C3I10,-1.3618470852500004
15663,Cs2Zr(IO3)6,-1.3694293516985963
15664,Sr2ScTaO6,-3.6225020913333337
15665,Cs2TiCl6,-2.2443302487994887
15666,GaP,-0.4098386754166663
15667,La3SbO3,-3.172854074285714
15668,ThAlPd,-0.808722914444445
15669,CeTlPd,-0.580562709444444
15670,NaMnVO4,-2.3115656488546796
15671,TiZn3,-0.20014775833333376
15672,Zr2H12(N2O7)5,-1.2296004473728828
15673,YMn6(Sn2Ge)2,-0.22695719955791452
15674,Li5Ni9As7,-0.47707056912698437
15675,CsInI4,-1.1619399675718391
15676,CaSbPt,-0.9771642100000003
15677,BaHfN2,-1.5220166712500003
15678,KIrO3,-1.5140732309333336
15679,K2IrF6,-2.4767768245555555
15680,KSrI3,-1.8523367309333334
15681,LuIn2Pd,-0.6183512849999999
15682,Rb2PS3,-1.192395134201389
15683,LaCrO3,-3.1966233445
15684,Cu3Se2,-0.32197086593750013
15685,BaPIr,-0.9145615277777767
15686,LuNiBi,-0.6356531799999997
15687,TbNiP,-1.2150176344444443
15688,LaBrO,-3.4118632274999996
15689,Sr3Li4(GeN3)2,-0.721822190222222
15690,KVP2O7,-2.7438614349696975
15691,HfNi3,-0.5380922679999998
15692,ZnI2,-0.8721765856250002
15693,K7Nb14(P3O20)3,-2.9240371280111117
15694,Rb3ScCl6,-2.39059719975
15695,NdCrTeO6,-2.514530933333333
15696,Li2SbPt,-0.6773404491666666
15697,Na2TeO3,-1.8549531967672415
15698,NaV2P2O9,-2.671435607372742
15699,Ti3PbO7,-3.1531934981818184
15700,Gd2Mo2O7,-2.879819665909091
15701,SmSiAg,-0.5493906994444444
15702,Si4P4Ru,-0.358363407592593
15703,AlTlS2,-1.140986113020833
15704,Ca4ZrN4,-1.27534332
15705,MnSnO3,-2.083880106586207
15706,Eu2(Ga3Ir)3,-0.5992050169642857
15707,LiLa2RuO6,-2.8623375333333336
15708,Zr14Cu51,-0.16313380046153814
15709,EuMgSi,-0.4235731791666666
15710,LiFe(SeO3)2,-1.5947300488020837
15711,ScInNi2,-0.44457331624999963
15712,K2PdF6,-2.3881034912222225
15713,CaPrZn2,-0.30749588124999994
15714,Yb2Pb,-0.5491493683333335
15715,Cs4Th2P5Se17,-1.0985770756512336
15716,Ca2Si,-0.43444832083333357
15717,Tm6Co30P19,-0.847977036060606
15718,PrGaPt,-1.0029240974999993
15719,LuInAu,-0.7070423066666665
15720,Zn3S2O9,-1.860465397232144
15721,TmRe2,-0.2929470988888892
15722,Au2O3,-0.45785357900000034
15723,Ca4Al6SO12,-3.380632916222825
15724,Cs3TbCl6,-2.4834086553793098
15725,Lu6Mn23,-0.042237500428062104
15726,CeZn3,-0.29392664437499993
15727,NdSiNi,-0.7063723933333327
15728,Pr2Te4O11,-2.266693380882353
15729,NdGe2Pt,-0.8989941481250003
15730,Cs3Nb9(TeO8)4,-2.62017658955819
15731,SrZnAsF,-2.007833211041667
15732,PrCdAg2,-0.2778476170833333
15733,P3NCl12,-1.0716934982812498
15734,KZn4(SbO4)3,-1.9213726776499995
15735,TaTlWO6,-2.518772398703704
15736,ThN,-1.7525214924999997
15737,UTe3,-0.8426806975000005
15738,SrLiY2(BO3)3,-3.336472577239583
15739,La3Lu2(GaO4)3,-3.4129221462500006
15740,K4UO5,-2.6380735571999994
15741,TlZnPO4,-2.2266785288095243
15742,Lu2(Al3Rh)3,-0.8087102107142863
15743,Eu3Sc2(FeO4)3,-2.8627897974999996
15744,Gd8MgAlNi2,-0.25734245625000085
15745,NaLi2Bi,-0.48539125330459765
15746,LaV2IO9,-2.3229724725000005
15747,CdGeAs2,-0.09115936624999987
15748,NaCa9Mg(PO4)7,-3.2750992694540235
15749,YbAgBi,-0.5888858988888886
15750,Rb6HgS4,-1.1055681320454547
15751,LiYGa4,-0.5012327566666664
15752,Pr2Hf3(MoO4)9,-2.5687971372000002
15753,Sr3Se3(ClO4)2,-2.2429876980957033
15754,PuN,-1.4661169674999996
15755,Sc3SnC,-0.7897202840000006
15756,SrAlF5,-4.045896044166667
15757,SbRuS,-0.6842866060416656
15758,Lu2NiIr,-0.77809274
15759,Ba3BAsO3,-2.5343987498958334
15760,K2Mo2O7,-2.1441830510000015
15761,Ca2AgPd2,-0.6132807633333328
15762,ZnCO3,-1.822855139
15763,Ba3Ge4,-0.5698631853571433
15764,Bi2Ir,-0.027013720000000536
15765,SrFe4(CuO4)3,-1.5115032768333336
15766,Ce(Sb3Os)4,-0.17617276970588341
15767,Ba2LaPaO6,-3.6544359625
15768,Na2Cu(PO3)4,-2.460238834812462
15769,NaDy3Ti2(SbO7)2,-3.1496817131008354
15770,Pr6Cd(SiS7)2,-1.9039167679891307
15771,ErTl(PSe3)2,-0.8981326849062498
15772,Nd(BC)2,-0.40928275966666516
15773,K2TcF6,-2.8401836778888887
15774,YbCu5Sn,-0.2596641857142856
15775,ThPbAu2,-0.5417753150000006
15776,Be2P2PbO8,-2.788549282435897
15777,K(B7H6)3,-0.26581950788750036
15778,PBr3O,-1.2554224701666672
15779,NaGe2Pd3,-0.500471874425287
15780,Cs2WBr6,-1.4665058389846746
15781,Rb2TcCl6,-1.7644268205555553
15782,Dy12Co5Sn,-0.2781396344444439
15783,TmB2Ru,-0.6519177618749996
15784,EuGePd,-0.7675646366666662
15785,Zr9S2,-0.7011007148863655
15786,LaNiSb3,-0.7644393335000004
15787,Li3Pr2(BO3)3,-3.088670198970589
15788,Li3ErBr6,-2.0032709665000006
15789,LiPr(WO4)2,-2.640168621944445
15790,USbRh,-0.5771168466666659
15791,CeZn11,-0.1981508487500001
15792,Ba5Tm2ZrAl2O13,-3.5055849410144932
15793,K2GeSe4,-1.0225064750535715
15794,LiInS2,-1.1849183380208332
15795,NaLaP2O7,-3.1179762200653074
15796,Nb3TeI7,-0.822798608636364
15797,Tl9SnTe6,-0.4558683071874996
15798,Hf2MnRh,-0.5480433094827593
15799,Sr5(IO6)2,-2.349589903070177
15800,Ag2SnHgSe4,-0.47823107096354134
15801,Gd2ZnTe2(SO7)2,-2.3595873893452373
15802,NaGeAu3,-0.24512177956034478
15803,CsNb3(PO5)3,-2.905978465701412
15804,K2MgSi5O12,-3.1216741021750005
15805,Li2Mg2(SO4)3,-2.3833028599232464
15806,K2Sr(NbCl3)6,-1.9219687986172838
15807,Ba3FeN3,-0.7124209828571425
15808,NpF5,-3.633419905208335
15809,La4S3NCl3,-2.560324196761364
15810,SiSbPt,-0.5502259500000003
15811,Zr6Fe16Si7,-0.5260797358620688
15812,P3(WO6)2,-2.508185465882353
15813,Ce(AlZn)2,-0.3828178789999999
15814,GdMoBrO4,-2.5783230175000003
15815,ZrRu3C,-0.32684769299999916
15816,KZnAs,-0.47595171433333344
15817,ScNb(NiSn)2,-0.5255332108333329
15818,Li2H4(SO4)3,-1.8139133258829367
15819,Er6Ni20As13,-0.6813689739743598
15820,Pm2MgSn,-0.4383025674999992
15821,Sr3ZnPtO6,-2.387859772727273
15822,Zr5SiPb3,-0.45009272555555513
15823,ZrCuGe,-0.5829147816666674
15824,Yb(As2Rh3)2,-0.6894899181818178
15825,Eu5CdCu2,-0.1566998350000004
15826,K2InSi4HO11,-2.812793009526316
15827,AlInI4,-0.8911148070833329
15828,Dy(FeSi)2,-0.6490421739999988
15829,ZrFeSi,-0.7318065858333339
15830,SbSBr,-0.7885617993749996
15831,ScZnRh2,-0.77527428375
15832,KP(HO2)2,-2.191580785166666
15833,LaMgPd,-0.6657690472222223
15834,LiCdBO3,-2.310187094583334
15835,AlFeCo2,-0.37134927750000024
15836,RbPr(WO4)2,-2.6434245393749998
15837,Sc4Ge6Ir7,-0.8614079123529417
15838,Ca2LaRuO6,-2.860469415
15839,CsSi2HO5,-2.7902120864367816
15840,Sm4Si2S3O7,-3.2566342987109387
15841,CaHg,-0.5521203774999999
15842,K3VS4,-1.4238256558125006
15843,NaEu2AlP3,-0.9137875620073898
15844,MnPd2Au,-0.19656313948275805
15845,NaLa6OsI12,-1.5962851005775867
15846,NaCaBeSi2O6F,-3.2853574988793106
15847,PrAsS,-1.7261933077083331
15848,Nb3Al2C,-0.45721900125000065
15849,CsAgCl2,-1.528475871149425
15850,Y2O3,-3.9709200774166673
15851,NaGaO2,-2.2214824766379304
15852,Dy3Pt4,-1.2273959371428569
15853,Cs3ZnI5,-1.476665145143678
15854,LiZn2Pt,-0.5618017508333333
15855,La4CdRu,-0.3017917408333333
15856,Eu2Ge,-0.5720645950000005
15857,Eu3Al2O7,-3.383126613333333
15858,Lu2Te5O13,-2.2068190775000005
15859,Y2Au,-0.6466443752777783
15860,Ca(AgGe)2,-0.30120460666666704
15861,SrGe4O9,-2.3389625165476184
15862,Ta2NbRu,-0.2639596687499992
15863,Ce2ZrS5,-2.1753200650781244
15864,KLi2As,-0.5899249424166668
15865,PrGa2Ni,-0.6158863662499998
15866,PmSmRh2,-0.7034249906249999
15867,Ba4Si3Br2,-1.1224033663888884
15868,KScAs2(HO4)2,-2.149308650214285
15869,Na5HfAs3,-0.5820205325287355
15870,Sm5Sn4,-0.7544351155555565
15871,TbNiGe3,-0.5804070690000003
15872,CaB2Rh3,-0.6132519180555557
15873,KAlNiF6,-3.2091895875555556
15874,Li2PbO3,-1.788505930277778
15875,Gd(Ge2Rh3)2,-0.7435972527272722
15876,Ce3Ga,-0.2511585956249993
15877,La2Au5F21,-2.2640501750000004
15878,CaMn(GeO3)2,-2.447887774293105
15879,LiGaBH3O5,-2.05644011409091
15880,Hf2Sb2Pb4O13,-2.419035203571429
15881,Li3Ni2SbO6,-1.9143695316666676
15882,Cs3AuO,-0.8736941277586208
15883,TiSb,-0.5554318091666666
15884,Pr(FeSi)2,-0.5783583069999991
15885,Er2Cr2C3,-0.3279486528571423
15886,Ta6TiTl2O18,-3.1295400811111125
15887,Dy(MnAl2)4,-0.34248907782493415
15888,YPt2,-1.084260490555555
15889,CsZr6CCl15,-2.20676424904048
15890,Y4Se3N2,-2.054194711521991
15891,Nd2GaCo2,-0.2804392594999996
15892,Np(SiAu)2,-0.21528150374999983
15893,PuAl3,-0.29106100916666594
15894,CaPd,-0.6751028799999994
15895,CaB6,-0.4078072207142855
15896,BaNdAgS3,-1.8681160860069437
15897,CePO4,-3.4051519391666667
15898,KY(MoO4)2,-2.542291753930556
15899,Yb2Cr2C3,-0.16145701857142772
15900,CaGaAu,-0.7118038091666671
15901,SrGe2(BO4)2,-2.665377060384615
15902,Y5S7,-2.3647557237673618
15903,Ba(PRh)2,-0.9541908033333335
15904,BeCrRu2,-0.14291168374999863
15905,PrAlNi,-0.4889158949999989
15906,Ni2SbTe2,-0.4674334309999999
15907,Dy(AlFe)6,-0.3870806953846157
15908,U3P4,-0.9678700461904768
15909,K2ZnTe2,-1.0441705302000002
15910,Dy(MnSi)2,-0.6036918511724124
15911,Sc2Fe3Si,-0.4973494074999998
15912,Ba3CdIr2O9,-2.0696442476666674
15913,NbSn2,-0.13910880166666573
15914,Hf6Co16Si7,-0.6729091096551725
15915,Ta2RuW,-0.28304490625000156
15916,Tb2Au,-0.622155905833333
15917,Gd2Te4O11,-2.2797326691176467
15918,Na2Zn3(SiO4)2,-2.4768661633180082
15919,Ce2Te7Br2O17,-1.9694551648214293
15920,VP2O7,-2.6272582546666667
15921,RbNb4Ag(PS10)2,-0.9969346954761907
15922,Ba2CrN3,-0.9854926441666668
15923,K3RuF6,-2.5886991888999993
15924,RbAlO2,-2.8611657018749996
15925,KGeNO,-1.2790452545000006
15926,Co5NiS8,-0.7396446835714282
15927,LiPtF6,-2.021736711041666
15928,LuHfCo2,-0.33419744750000024
15929,H3ClO5,-0.8211132900000003
15930,HoAu3,-0.7224458112499996
15931,KCrF6,-2.6232585972500004
15932,NaScP2O7,-3.064156101428945
15933,Y3Ni2,-0.3559623577500005
15934,KGd2CuS4,-1.9168620819374986
15935,NbMoW,-0.05772061666666654
15936,YGaPt,-1.1022650972222217
15937,K3SbTe3,-0.9639906430714282
15938,Sr(AlTe2)2,-1.075739436666666
15939,K8NbAs5Pb,-0.46281964176666623
15940,K3Na2InO4,-1.635893141960345
15941,PmI3,-1.6884316056249995
15942,ErAg2,-0.3328381711111111
15943,K12Sn4Au21,-0.34636209759459485
15944,Er3(SiNi3)2,-0.6815767727272725
15945,LaSO,-3.051928428541667
15946,Tl2FeH12(SO7)2,-1.4882335678360206
15947,GaCuS2,-0.8287499334374999
15948,Tb5IrBr9,-2.015001943666667
15949,Dy4CdNi,-0.29542515124999963
15950,Rb2MnS2,-1.198510989836207
15951,K2PtSe2,-1.0951139981374993
15952,Dy3Al5O12,-3.6989512187499995
15953,NpH6Cl2O13,-1.260037391647728
15954,PmLuZn2,-0.3315645268749998
15955,LiFePO4,-2.4802079830952377
15956,K2NaTlO3,-1.4404617283407224
15957,K3BP2,-0.39561214997222177
15958,Nb2(Ni7B2)3,-0.3176798339655165
15959,Pr5Co2,-0.0460477557142858
15960,SmV2IO9,-2.2952063161538465
15961,Sb2S3,-0.5511049863749996
15962,Ba2PrBiO6,-2.7474894985000007
15963,LaCrSb3,-0.6163794544999994
15964,Al5CuS8,-1.2790966189285717
15965,Mn7FeCl3O10,-1.903300255262727
15966,BaLu2F8,-4.428381946818181
15967,Mo(BrO)2,-1.392638555
15968,LiGa2Ni,-0.38164872958333307
15969,Ta4Co2PdSe12,-0.9964938404276317
15970,K2MoCl5O,-1.8489700537222227
15971,Na2CrPCO7,-2.3975548174113968
15972,Ce2Co5B2,-0.4494902423148146
15973,Sr2Li3TaN4,-1.0603907570833329
15974,U2Ta3Ge4,-0.34908779444444504
15975,Ho2AlSi2,-0.6910223020000004
15976,Rb3ErCl6,-2.5063565207499994
15977,Ce4Ni3Bi8,-0.5146821480000009
15978,Pr2W2O9,-2.9203739190384614
15979,Cs2TiV3(PO6)3,-2.689222099414646
15980,Tb(GePt)2,-0.8679748919999994
15981,Tm2TeO6,-3.05317467925926
15982,Y(SiRh)2,-1.123406163333334
15983,YSnPt2,-0.9988360116666675
15984,Ti(NbSe2)3,-1.2598028552395832
15985,Ce2InPt2,-1.0187377780000006
15986,RbTi3Si2P6O25,-2.9990707775000014
15987,CsHoMnSe3,-1.5664941413155529
15988,La12InCo6,-0.1706818747368423
15989,Nd5As4(ClO4)3,-2.8674389527083335
15990,Sr14(SnAs4)3,-1.0189986264942534
15991,CsRb14Tl27,-0.12012607197454865
15992,TiAlPd2,-0.7610236508333328
15993,Ac2SiPd,-0.5551610687500004