,formula_pretty,formation_energy_per_atom
21212,Ca6Sn2NO,-1.3065151559999997
21213,Tb2MgGe2,-0.7797116609999997
21214,ZnCu2SiTe4,-0.3890435887499999
21215,LiOsO3,-1.744556008666666
21216,CaIrO3,-2.1019502690000005
21217,CsVN2,-0.9158711057327595
21218,TiI2O7,-1.5888379048333328
21219,TiI3,-1.0890178670833333
21220,SbPO5,-2.257392509761906
21221,Ba9Ca3La4(Fe4O15)2,-2.7477679698148156
21222,TaTlO3,-2.6876834104166663
21223,Na3CoF6,-2.6639265464655173
21224,TbCrTeO6,-2.541607683333333
21225,Cd(GaS2)2,-0.9722776167857141
21226,BNF8,-1.7547706444166669
21227,GaN,-0.65681686875
21228,K8Ti5P2(O4F11)2,-3.4180365819962963
21229,Ca9La5Cl33,-2.852232678829787
21230,K2Ti6O13,-3.349452642428573
21231,Pd2PbO4,-1.0749408985714288
21232,Sm2SO2,-3.503182176625001
21233,Gd(NO3)3,-1.4466239788461555
21234,BaPt2,-0.726316611666667
21235,YbNi4Sn,-0.36037771416666686
21236,Ce2Sn3,-0.5953134065000001
21237,Sr7Y6OF30,-4.323569501969698
21238,Sm2AgHg,-0.3828586629166666
21239,Co2Te3O8,-1.4783569761538473
21240,Li2Y5In9,-0.46049302109375034
21241,Y5Co19P12,-0.8863095466203705
21242,Dy4Zn5Ge6,-0.552349847666667
21243,Al4Tc,-0.37229528600000017
21244,SnH8(NF3)2,-1.600657812352941
21245,Er3(Al3Os)4,-0.5855880021052632
21246,KPr(PO3)4,-2.9139674289629633
21247,Zr(AlFe)6,-0.40123282076923117
21248,Ni13Sn8P3,-0.35493561864583256
21249,Tb(SiAg)2,-0.3711520406666665
21250,MgMoH2O5,-2.035679783888889
21251,Lu4Ni13C4,-0.36113181380952414
21252,SmEuHg2,-0.49487396750000023
21253,Mg2SiB2Ir5,-0.605637927333332
21254,Np2SO2,-2.8150293021250006
21255,RbTcO4,-2.159370695416666
21256,LiPm2Os,-0.11466087583333362
21257,Pr3CuGeS7,-1.7543819805729157
21258,PrGeBO5,-2.959290407465277
21259,YInCu4,-0.2705845977777776
21260,Cs2AlAgF6,-3.0390528067528733
21261,Th14Au51,-0.6219282786153844
21262,ZnH2SO5,-1.6933543009027783
21263,Cs2UP2O9,-3.0084671194663386
21264,V2Ge(O2F)2,-2.633429808611111
21265,Li5SbS3I2,-1.2713147407765155
21266,Y2(SeO4)3,-2.072301110021446
21267,Tm2CuOs,-0.33410401958333313
21268,CsHCO3,-1.871825667988506
21269,Zn(GaO2)2,-2.176957137857143
21270,K3Cd(BO2)5,-2.61157481485965
21271,MgZnCu,-0.1980546116666666
21272,TbMgZn2,-0.3497093549999999
21273,KTa(AgSe2)2,-0.9083752900885411
21274,Y11Sn10,-0.7738321923015873
21275,La4Ge7,-0.7581232913636365
21276,Hf2CoRe,-0.41069192249999986
21277,SmSi2Ni,-0.838552045000001
21278,PrB4,-0.5431937308333332
21279,Er5(CoTe)2,-0.8354718450000015
21280,Y2Co14B,-0.16860356088235265
21281,Al2B3HO8,-2.9163908560714282
21282,LaTe2Se,-1.5815261980859372
21283,Sb2(SO4)3,-1.7837389987867647
21284,HfTl2Se3,-1.125275692282986
21285,Sr2NbFeO6,-2.9245456283333326
21286,Mn4Be3Si3TeO12,-2.717549707901049
21287,Ba2GaAsSe5,-1.4402195760243055
21288,Dy2Mn3Si5,-0.59194313787931
21289,Ca7TlN4,-0.8752681148611116
21290,Na3Be3Pb2F13,-3.1650210172454845
21291,ThSe2,-2.0449718907291667
21292,Ba3(GeN)2,-0.686234954285715
21293,K5V3O10,-2.400020429305556
21294,KSrNb2O6F,-3.208077319287879
21295,Gd3Se2NO,-2.5579031599553588
21296,CeMg2Ni9,-0.2852993712499998
21297,CuPtF6,-1.7277486874999992
21298,TbZnPd,-0.7507879144444445
21299,Hg3AsO4,-1.0594566912499999
21300,Yb5(Ge5Rh2)2,-0.7006464342105261
21301,Na2ZrSe3,-1.5283195575224493
21302,Na3Li3In2F12,-3.0274059009827585
21303,Na4SnSe4,-1.129418137842433
21304,DySiNi,-0.7878939941666664
21305,ErSiIr,-1.0928534591666665
21306,Zr(IO3)4,-1.3299715055882355
21307,Sc57Ru13,-0.2864795932142856
21308,Zr3Sb,-0.5455897868750004
21309,U17O31,-3.6424099711458333
21310,Na2(CrSe2)3,-0.9777492579241763
21311,CsWCl6,-1.638530627241379
21312,V2TcRu,-0.32477383374999924
21313,Tm(GeRu)2,-0.6273599253333344
21314,MgZrRh2,-0.7938961675000007
21315,NaSr11(PtO6)3,-2.542219503481366
21316,ErGa3Ru,-0.5840404321666672
21317,Cu6As4S9,-0.43785024200657874
21318,KBi3S5,-0.8238474048472221
21319,Na2(NbS2)3,-1.4843774260775866
21320,Ti3Nb3Sn2,-0.2353331587500005
21321,BPS4,-0.646363224166666
21322,DyAl3Ni2,-0.6579804488888885
21323,Tm2SbTe,-1.3230339108333338
21324,ErCu4Au,-0.3511315349999998
21325,CsLaCdTe3,-1.3732666763218386
21326,DyGaPd,-0.8938326258333333
21327,SmGa3Ni,-0.6035025935
21328,Zr2Ni,-0.3230649683333328
21329,LiLa5Si4N10O,-1.6949641858730156
21330,Zr6MnBi2,-0.280910316436782
21331,Fe2PO4F,-2.366237917916666
21332,SmRe2,-0.0794267933333342
21333,Pb3Se2(BrO3)2,-1.4367691353605767
21334,CaAsPd,-0.9498266654166662
21335,YbLuPt2,-1.2072331999999992
21336,NbCo3,-0.15932918999999934
21337,Y(PRu)2,-1.0356595646666675
21338,Nd3Sn13Ir4,-0.5049836872499995
21339,PrAsO4,-2.7917377033333337
21340,Cs2LiAl3F12,-3.6650302871775224
21341,In(Cu3O4)2,-1.128773192
21342,Yb5CdCu2,-0.273818543125
21343,Cs2ZnBi2S5,-1.0346760033987068
21344,AsSe(ClF2)3,-1.884359090213068
21345,SrZrS3,-2.0789475512083335
21346,Ba(ZnP)2,-0.6483642113333332
21347,HoAl3Cu,-0.4269712560000002
21348,Ce2ZrSe5,-2.005404776464843
21349,TbAlPt,-1.1426322091666659
21350,MnCr8Cu3S16,-0.9392416752832509
21351,TaFeRu2,-0.19590998750000033
21352,Cs2FeF5,-2.890668788232759
21353,LaGePt,-1.0978152649999995
21354,RbCaBr3,-2.2841289419999997
21355,Pr4MgCo,-0.08275019041666691
21356,HgSb3XeF17,-2.395423729545455
21357,CsGdZnTe3,-1.3227875538218392
21358,Tb2Pt,-0.9220104699999995
21359,Rb2LiVCl6,-2.0434350228333336
21360,La4Se3N2,-2.1070693346701383
21361,SBr2O,-0.8775003610937504
21362,YbTe,-1.8765704300000001
21363,Cs2Pu(Cl2O)2,-2.4932684395402296
21364,Zr2NiP,-0.9924390145833328
21365,LaRh,-0.7374389025000001
21366,CoPO4,-2.0950215063888904
21367,ZrUN2,-1.7132071950000007
21368,NdBRh3,-0.6962880758333341
21369,Ti4P6PbO24,-2.9758289552380957
21370,EuH2,-0.6742589833333336
21371,TiCrCuS4,-1.1869178094047623
21372,YSbPt,-1.2776367388888883
21373,LiAuO2,-1.2371193445833333
21374,LiThF5,-4.125189959047619
21375,NdErIn2,-0.4575323375
21376,FeSb3,-0.1670132781250011
21377,TbBRh3,-0.785700043833333
21378,TbGaNi4,-0.4493027701388886
21379,Nd2Ti2O7,-3.730972544242424
21380,Ta4Ga(TeSe)4,-0.8592648451442298
21381,NdGa4Co9,-0.23134048999999987
21382,Nd3SiS6Cl,-2.071261363636364
21383,Ba3Al3As5,-0.8875018493939396
21384,SbH3OF6,-2.1698806072727277
21385,Np2Re3Si5,-0.32447810799999954
21386,Ti6CCl14,-2.0114924321428576
21387,AcSnAu2,-0.6846907943750002
21388,Mn(PO3)3,-2.514139308174183
21389,Li3Bi,-0.5295057349999999
21390,CsHO,-1.4926871593103452
21391,Pr3MnGaS7,-1.8291638635255023
21392,Tm(GeRh)2,-0.8544677653333338
21393,Cr3B7O13F,-2.6680862092361117
21394,La2EuS4,-2.474759288928571
21395,Er5CuPb3,-0.47071154166666673
21396,Rb3U2Ge2O11,-2.8858518205555552
21397,Rb4Pb9,-0.15772634538461552
21398,CsInCu(PO3)6,-2.478293671404854
21399,LiNO3,-1.3871190626666674
21400,Y5(Ge5Ir2)2,-0.7843448520175444
21401,K3Ta2Ag3Se8,-1.0487509514218742
21402,RbInS2,-1.1956379390624994
21403,La5C2I9,-1.551466026875
21404,Pr21Fe8Bi7C12,-0.5022909136458331
21405,Rb2MnP2H3(O4F)2,-2.3657496291443163
21406,Ca2NF,-2.2652700626041664
21407,K2OsO5,-1.8106463697083335
21408,Tb2SeO2,-3.48488621246875
21409,Rb4P21I,-0.3231386642307694
21410,Np(SiOs)2,-0.45118254974999983
21411,Cu2PdAu,-0.11528450750000019
21412,TeI7,-0.26760708187500004
21413,Rh,0.0
21414,Tl3SbS3,-0.553641422767857
21415,Sc4FeCl5,-1.8490571465000003
21416,Os(OF2)2,-1.842228734047619
21417,Nd3MnAlS7,-1.9183574862338364
21418,Sm4Ge9Ir13,-0.6715925603846157
21419,Ca2Bi,-0.7516063966666667
21420,GdBi2BrO4,-2.3850584609375005
21421,Na2LuC2O6F,-2.614361882966955
21422,LaTaTiO6,-3.6549645950925935
21423,HoB2,-0.5925310861111098
21424,TbRe2SiC,-0.4678574089999998
21425,KSb(PO4)2,-2.459021084138888
21426,BaAs2Pt,-0.8486214862499999
21427,MnV2HPb2O9,-2.0394566378620698
21428,TiNiSn,-0.5294162127777776
21429,K5TlO4,-1.4045479370833331
21430,Na3As4H5O14,-1.6959404601790449
21431,Sm2MgSi2,-0.6692328690000003
21432,K3Gd(AsS4)2,-1.192687623857143
21433,Cs2Pr10Ru2I17,-1.4685338719632923
21434,Dy3(Al3Os)4,-0.5909949139473681
21435,Li2HoIn,-0.27731083416666635
21436,HoBi2ClO4,-2.4720405150000007
21437,Ta2Tl4Se11,-0.798927580536152
21438,Nd5Sn3,-0.6890220750000005
21439,TaNbAl6,-0.3754824262499996
21440,La(GePd)2,-0.8572698889999998
21441,Nd(CuSi)2,-0.5650438340000001
21442,Hg3(SBr)2,-0.615114044107143
21443,LaCuGe2,-0.6294471212500001
21444,Ba3PbO,-1.4923899930000004
21445,LaSn3,-0.5750253525
21446,K2Ce(NO3)6,-1.3858520064567899
21447,LaCoN3,-0.7818923810000001
21448,CdCN2,-0.08146699749999975
21449,ZnIn2(SeO3)4,-1.524251712335527
21450,SrPb,-0.5450173108333334
21451,Sr2Zn3Te2(PO7)2,-2.432843394782608
21452,Al45Cr7,-0.1166251215384614
21453,EuClO,-2.8861983600000003
21454,PaZnAu2,-0.34503343000000086
21455,KPr5(CCl5)2,-2.2102670771111113
21456,Rb2YAgF6,-3.1936073753333334
21457,CsYZnTe3,-1.3149980515996162
21458,PmErZn2,-0.33246822937499987
21459,Sr(MgSb)2,-0.8281893573333334
21460,KTb2Cl7,-2.6758925420499997
21461,LaCePd6,-0.8370147000000001
21462,Yb11(Ni10C)6,-0.23794003168831143
21463,V3O5,-2.5223457256249997
21464,Er2(Ni5B3)3,-0.4209010249038447
21465,Nb7S2I19,-0.8938325676339284
21466,YCoC,-0.3090724355555565
21467,Pm2MgAl,-0.26172388625
21468,Cd3SiO5,-2.040596981666668
21469,Rb3SbSe4,-1.0984754255468747
21470,U4Ga12Pd,-0.3030969870588231
21471,MnV(Fe2Si)2,-0.4174702084913804
21472,ScS,-2.1194875090625
21473,LaHSe3O10,-1.643776519468751
21474,BaCu2GeS4,-1.058550673020834
21475,Li8Ag5,-0.2028067449999999
21476,K2CeI5,-1.6904499741875
21477,TiGa2,-0.4377064319444444
21478,DyAgTe2,-1.1257421116666668
21479,LiLa2IrO6,-2.7749340998333336
21480,V4Ni2N,-0.602246408928571
21481,La2ReO5,-3.262216910000001
21482,RbH3O2,-1.4548100445833334
21483,Ho5Ir3,-0.8369544340625001
21484,Hf6Al2Fe,-0.29024130888889016
21485,BaSi6N8O,-1.5571123065624999
21486,KCuH3,-0.11263900559999981
21487,Ba4Zr(RuO4)3,-2.56019217825
21488,ZnAg2SnS4,-0.6240708001041662
21489,Zr5(Te2P)2,-1.2472389806060613
21490,CsZr6MnI14,-1.2126106327664579
21491,Ba2LuSbO6,-3.1286002870000003
21492,ScSnPd2,-0.8778812550000001
21493,ErTaRu2,-0.42772258999999835
21494,HfTl2Fe2(MoO4)6,-2.049785109904763
21495,PmHoIr2,-0.726297459375
21496,La12Si4SnS28,-2.014399397166667
21497,NaAl(PS3)2,-0.9500492016968394
21498,Na2FePCO7,-2.2570079959530642
21499,P2H9NO8,-1.6375873200833333
21500,Ni(XeF8)2,-0.9847476817763157
21501,BaGe7N10,-0.356057347222222
21502,U2Al3C4,-0.17136061944444395
21503,LiScP2O7,-3.083547691363636
21504,Mg(Co2Ge3)2,-0.2563922054545458
21505,Cu2H10N4O17,-1.0226142383333339
21506,Al2Sb5(Se2Br3)3,-1.0130671731392054
21507,SiPbO3,-2.595927286166668
21508,ErFeC2,-0.2786677399999995
21509,YbCdAg,-0.3461729788888886
21510,HoTiSi,-0.6349967894444433
21511,Y3Si6N11,-1.5101340775000012
21512,SmMnSi,-0.5063858926436792
21513,Sb2Ir,-0.5089880608333329
21514,Th6CoBr15,-1.945051098522728
21515,ZrVSi,-0.7322134649999997
21516,Sc3NiC4,-0.4296316031249985
21517,Si2H6S,-0.2812129740972217
21518,Sr2InHg,-0.48421458708333365
21519,Hf(Ni2As)2,-0.49548766071428524
21520,USiRu,-0.5456434658333317
21521,Rh2S3,-0.7622071173750001
21522,PrAsSe,-1.610559276614584
21523,NaYO2,-3.131989107054597
21524,LuPtF7,-2.9169027788888893
21525,Ho(GeRu)2,-0.6430340419999994
21526,K2NbF7,-3.3770678635999998
21527,KY(TeO3)2,-2.311917105466668
21528,YGe2Ir,-0.8056824122916657
21529,Nd3(Al3Os)4,-0.5694914073684212
21530,MnP4O11,-2.5560327269540224
21531,K2PO3F,-2.7728217456190483
21532,Rb2LiSbCl6,-1.878168899833333
21533,Yb2Be2Si2NiO10,-2.92553245382353
21534,Ca10Ag(PO4)7,-3.2207202855434773
21535,CsUGa(PO5)2,-2.9432355714731804
21536,Zr2Mo(PO6)2,-2.9993971496568625
21537,Tm5(In2Pt)2,-0.8156688307575753
21538,Na4Ge2PbS6,-1.0719789865351463
21539,Nb5Si3,-0.6525949093750008
21540,CuTe2Br,-0.5477259424999996
21541,GdCd3,-0.28054562375000014
21542,Dy3Ga8Ag3,-0.4531530378571428
21543,Sr2LiInGe2,-0.529086491111111
21544,Cs4SiO4,-2.208718133802682
21545,Rb2NiO2,-1.2654713379999998
21546,LaSbO4,-2.8500735249999996
21547,CsBiO2,-1.6774609419827584
21548,Re2C,-0.029742771666666574
21549,CsMoP2HO9,-2.3485125183641222
21550,TmH2ClO2,-2.437757199027778
21551,Yb2SnS5,-1.5563964903906249
21552,CsCoO2,-1.44188705448276
21553,K3TbSi2O7,-3.0793566088974367
21554,Ba3SbI3,-1.77971473
21555,NdAlRh,-0.8200057241666675
21556,DyGa2Ni3,-0.5587984130555554
21557,Na4Y2(IrO4)3,-2.1007532709304875
21558,Hg2GeS6Cl2O21,-1.595302638007813
21559,Li2AlPd,-0.5349613141666669
21560,ThB2Rh2C,-0.6710556047222221
21561,NiSb3,-0.2850567068750003
21562,Na3P,-0.3317955544971265
21563,YbS2,-1.745687025416667
21564,HoSiNi,-0.7990168874999993
21565,EuAl9Co2,-0.40612467374999994
21566,Pu2HgGe,-0.261370415
21567,SmSbPd,-1.0843238199999992
21568,CsTaTe3,-0.8466940705862072
21569,Ta2NiSe5,-1.0271978970898434
21570,Ba8Dy3(Pt2O9)2,-2.6554351312121223
21571,Na3Eu2(GeS4)2,-1.3910154427547892
21572,Re3N,-0.12182528999999853
21573,NaEuO2,-2.627077961637931
21574,YbReB4,-0.47507944527777707
21575,FeCoH18(NCl)6,-0.738799130703125
21576,Tl3VO4,-1.6741741787500004
21577,CdSb5OF28,-2.4508752671428566
21578,Ag3SnP7,-0.051618671666667316
21579,Re2NiO8,-2.0215201520454555
21580,Li2SnPt,-0.6521608929166671
21581,CsZn2B3O7,-2.5016158464434137
21582,Ca2AuN,-0.8967025275
21583,Gd2Nb2S7O30,-2.2998975115091462
21584,HgS2O7,-1.5424501016249998
21585,CsBe4(BO3)3,-2.9549843988488846
21586,MgAsPt5,-0.47846120499999906
21587,Sm2ZnHg,-0.38194280125000013
21588,Ga2O3,-2.268996668999999
21589,GdZr3F15,-4.103872266842106
21590,LaNi9Ge4,-0.41694669999999995
21591,TeAsIr,-0.5749086716666673
21592,CsMoF7,-2.747919397131226
21593,ErAs,-1.5128535875000004
21594,UH6Br2O5,-1.778048253571429
21595,K4(BSe)9,-0.7633099204057747
21596,NdAl2Cu9,-0.1961861337499998
21597,Tb2Si5Ir3,-0.9514116504999997
21598,Zn11Ni2,-0.162326948076923
21599,Cs2NaAsF6,-2.79291263524138
21600,Th2BiN2,-1.658805246
21601,SiF4,-3.474476041999999
21602,K2Sb2S(O2F3)2,-2.5294142141083333
21603,BiPO4,-2.4122909013888894
21604,Tb(Ni2B)6,-0.3952617076315783
21605,Th(GeIr)2,-0.8271608529999994
21606,SbPbF7,-2.7013290308333335
21607,HoLuAg2,-0.3413041858333328
21608,NaCuSO4F,-1.8948522327720903
21609,Er3Rh,-0.5481304768749995
21610,TiRe2W,-0.3445376508333311
21611,Ho5(SiSb)2,-0.9382727811111103
21612,Rb2CoBr4,-1.4951962485714283
21613,Ti(TlSe)4,-0.8853029923379631
21614,Cs2NaBiCl6,-1.9747537282413792
21615,BaEr2F8,-4.420433326363637
21616,Sr2YbRuO6,-2.6646570983333335
21617,SrEuGdSbO6,-3.0556232011666666
21618,Dy(NO3)3,-1.4562657326923083
21619,NpSi3,-0.1877705496875004
21620,HfCo,-0.3985034425000009
21621,Nd3(SnPd)5,-0.7979724846153841
21622,U8CrS17,-1.7061667378124985
21623,ScGeIr,-0.9552601483333341
21624,KPH2SO3,-1.8350777643072913
21625,V5Te8,-0.601768360769232
21626,PbO,-1.4690764820312499
21627,KDy(CO3)2,-2.5784867708
21628,Na(VSe2)2,-1.0788082465609605
21629,YSnRh,-0.8948583850000007
21630,Sc4C3,-0.4855017399999986
21631,Na3B5Se9,-0.7112105696518976
21632,NdMoBrO4,-2.585781711785716
21633,SbP3C(NCl5)3,-0.9996453004347822
21634,AlSb,-0.2554967800000001
21635,Gd2IrAu,-0.7841318299999998
21636,LaCuTeS,-1.5618385470312504
21637,NaSm9Si6(SO12)2,-3.535050094352422
21638,RbNaMg3Zn2(Si2O5)6,-3.084299946817382
21639,Eu2Ti2O7,-3.4084640969696975
21640,MoCl5,-1.303024295833333
21641,K2CdH4(SeO5)2,-1.4983189066151321
21642,UNiSn,-0.2258352066666672
21643,Ho(GePd)2,-0.7856646499999996
21644,TbRh2,-0.7368745366666664
21645,PrAgPb,-0.46135980888888933
21646,Dy3CuSiSe7,-1.5822755084505207
21647,Cs2H6Pt,-0.37763914731800774
21648,NpSi2,-0.22349746458333306
21649,Mg2B2O5,-3.022015075648148
21650,La2Ni2I,-0.8069664230000001
21651,Ti2PCl13,-1.7183752863281248
21652,Dy4Ga21Ni10,-0.5104380422142859
21653,LiCuO,-1.4329465902777774
21654,RbBa2Br5,-2.4528522421875003
21655,DyAg(WO4)2,-2.3787026293055553
21656,TePdI2,-0.5396106562499998
21657,Dy2IrRh,-0.8783331075000005
21658,Sr2CaSbO6,-2.741244473333334
21659,Ba3Ta2NiO9,-3.158460383000001
21660,U6Nb4Al43,-0.20475079433962287
21661,MnZn3,-0.03106088448275912
21662,Nd5Ir3,-0.6240579700000009
21663,Eu2PI,-1.5136326595833323
21664,AlAgO2,-2.3074725154166664
21665,RbZnPO4,-2.513766117261904
21666,Ga6SnTe10,-0.5733354014705878
21667,TiSiPd,-0.8251672252777761
21668,RbB5O8,-2.83514217952381
21669,Hf2IrRh,-0.9157500300000017
21670,TbAg,-0.31071413833333317
21671,Cs3CoI5,-1.2922938454214556
21672,TbMg(BO2)5,-3.1060710332843136
21673,Tb12Co7,-0.16027647684210566
21674,Gd(MnGe)2,-0.4746682711724134
21675,Rb2Pd3Se4,-0.9303495482638885
21676,HoRu2,-0.34463775583333245
21677,U2Mn12P7,-0.6583106946907494
21678,KCrN2,-0.6461010821562496
21679,KCaBi,-0.6897108443333334
21680,Y(SiPd)2,-0.9522320093333334
21681,SrLiAs,-1.0251596766666669
21682,Cs2Zr(AgTe2)2,-0.9895295054661557
21683,NaH3(SeO3)2,-1.3870850717699355
21684,Ba2SnS4,-1.704444560357143
21685,RbP15,-0.10306020671874982
21686,AlFe3H,-0.20550045700000225
21687,CaIn,-0.469559045
21688,HoPaO4,-4.194536871666666
21689,Li2HgPd,-0.42192876291666614
21690,NpN,-1.2943825268749993
21691,Rb2Ga2Ge3O10,-2.2348888500000004
21692,CsSc(SeO3)2,-2.1689417355118534
21693,Co2NiS4,-0.7532293882142856
21694,Cs3Zr7BCl20,-2.2431001059019287
21695,HoCrO4,-2.782471384166667
21696,Pr8Sb2S15,-1.9983989841749985
21697,Bi2Pd5,-0.27475433571428554
21698,Ba(YTe2)2,-1.7999435786904765
21699,CeThB12,-0.5048384817857142
21700,Hg2NO4,-0.7415101757142862
21701,Ca2Ta2O7,-3.485045420259741
21702,Nd(SiOs)2,-0.6962758999999992
21703,NpPO4F,-3.2247552170833336
21704,SmMgAg2,-0.30314213458333317
21705,NdGe2Ir,-0.7998656406249998
21706,Na4VS3O13,-2.1825257853253297
21707,Zn4B6SeO12,-2.4391331577105984
21708,Cs3V2Cl9,-2.0206810770566506
21709,Sm3MnAlS7,-1.916417634150503
21710,Na3PO4,-2.5254804172485636
21711,LuHCl,-1.5824769850000002
21712,Zr2(ZnGa)3,-0.47356298781250006
21713,K5As2Au,-0.440415045625
21714,Gd3I,-0.19232876875000038
21715,LiGa2Pt,-0.6226674795833329
21716,SrAu2(SO4)4,-1.746997541702898
21717,LaAl2Cu3,-0.3848799575000002
21718,Na3ScSi2O7,-3.0275058957427055
21719,Sm(GaPd)2,-0.7830973839999998
21720,AcN,-1.2626646362500002
21721,UTeSe,-1.217951977447915
21722,Ag(AuF4)2,-1.3853788765151516
21723,NaTl3F6,-2.2991175061551723
21724,VSiRu2,-0.5673163424999998
21725,BaNiF4,-3.385121325833333
21726,Li2CdSiO4,-2.537531492395833
21727,Sm(NO3)3,-1.4403657687500009
21728,CaZrTlF7,-3.738795120583333
21729,CsTlS2,-0.9006115837535917
21730,MnFeH4O2F5,-2.091630901571619
21731,Cs3O,-0.9281786846982758
21732,U3VSb5,-0.3838566544444433
21733,U(RhO3)2,-2.2373271205555554
21734,BaMn6O12,-2.0825330385571696
21735,Ba2InOsO6,-2.3205039135
21736,Ba2UMnO6,-3.2604998267931045
21737,Na3TbBr6,-2.016928923965517
21738,EuNiO3,-2.0740083050000018
21739,ErAgPb,-0.35332373888888924
21740,K2PuCl5,-2.3740961582500004
21741,Mg5Si2(O4F)2,-3.3403322532352946
21742,Ta2CrRu,-0.2780907937499997
21743,Te3(PbO4)2,-1.5566967637179487
21744,MnBiS2Cl,-0.9387488768362076
21745,Eu3AlO5,-3.3245700783333327
21746,Sm(Cd10Pd)2,-0.18826757065217392
21747,K3Cu3P2,-0.32898125570833336
21748,Ca2SnHg,-0.6610247749999996
21749,Ce4Al23Ni6,-0.5024602384848488
21750,KY(NbCl3)6,-1.906940413833333
21751,KUP3O11,-2.916310349484375
21752,NbS2,-1.3491724370833325
21753,Hf6Ni16Ge7,-0.5875220215517247
21754,LiCe(CuP)2,-0.7797223941666669
21755,Pm2SnPd,-0.6995837274999994
21756,Zr5Pb3,-0.1459548362499996
21757,ZnH2(SO4)2,-1.6957240643269222
21758,Ta2AgF12,-3.161065525777778
21759,LuFe4B,-0.26571278902777823
21760,CsTi8F33,-3.6959479662404213
21761,Ta3P,-0.5975777945833336
21762,TlInF6,-2.4753111910416665
21763,GaPd,-0.6626245862499998
21764,Ba(CuAs)2,-0.5137336580000003
21765,As2Pb8O13,-1.6356150526086954
21766,Th(GeRh)2,-0.8719369999999997
21767,Gd2InNi2,-0.5073768220000006
21768,EuHSO5,-2.2626507788281254
21769,Cs3TmO3,-2.2374035900656817
21770,PrBPt3,-0.8496743868333325
21771,Sm6Si4S17,-1.7646406423379621
21772,CsVP3HO10,-2.5932505606519394
21773,Ti3Pt,-0.6466139600000007
21774,Ba4Co(ReO6)2,-2.62965358131579
21775,NdCrGeO5,-2.805829241562501
21776,KLiSO4,-2.30581966635119
21777,NdSn2,-0.6380831433333333
21778,MnGaNi2,-0.2952288788577597
21779,LaAlNi4,-0.4655872358333326
21780,ScTlP2S7,-0.9826179751704545
21781,CsPt2Se3,-0.8978497466603805
21782,ThFe5P3,-0.7142313302777789
21783,YPb2,-0.3937053988888894
21784,TlAsSe2,-0.48065228278645833
21785,TlH6(NO4)3,-1.007335171515151
21786,La3MnGaS7,-1.9293452885255025
21787,TbTl(MoO4)2,-2.3787452217361107
21788,Na2Mn2Si2O7,-2.6435741704973474
21789,NaNb2AsO8,-2.5767669947126435
21790,Lu(GaFe)6,-0.32179769269230774