,formula_pretty,formation_energy_per_atom
24688,Sb8Pd3Au,-0.41861705416666695
24689,BiSbPt,-0.4151979850000001
24690,Ho2ZnIn,-0.39667634750000014
24691,K2RbTbV2O8,-2.731056386678572
24692,K2Hf2O5,-3.2908943281666674
24693,La3AuI3,-1.3313488003571428
24694,SrBi6(PO5)4,-2.4027245500000007
24695,CsRuF6,-2.4704627784913793
24696,Be2IrRu,-0.38714772375000006
24697,PrNi2B2C,-0.4330419272222213
24698,LiEu2CBr3N2,-1.6701561673148149
24699,KVH4O7,-1.5292532213846155
24700,La2Te4O11,-2.303931344117647
24701,Th2BiTe,-0.9472819725000008
24702,KMnBP2H2O9,-2.4365165551102725
24703,Na3Mn4(TeO6)2,-1.9142981380418724
24704,Ca3InP3,-0.9547723599999998
24705,SbPtSe,-0.648106086614583
24706,Rb2NbCuS4,-1.3166250078124992
24707,BeSiRu2,-0.5546519662499998
24708,Hf9Re4O3,-1.3272397325000007
24709,DyF3,-4.46798182625
24710,Ge2Os,-0.08337326666666674
24711,Yb4Sb6Rh7,-0.8404606341176466
24712,Cs2ZnH4,-0.33175604905172457
24713,VRh,-0.3861620575
24714,AlGaCl4,-1.7000833129166668
24715,ClOF3,-0.9186810529999999
24716,KMg3AlSi3(HO6)2,-2.961796856045454
24717,Ce(Ga4Co)2,-0.38231955727272743
24718,TmFe3,-0.11423537500000099
24719,Cs2Se,-1.2054080427352727
24720,NdV2IO9,-2.2953128351923078
24721,CeCoGe2,-0.6607778350000002
24722,B4PbO7,-2.647339741388888
24723,Nd4Rh6Pb19,-0.2647543051724146
24724,Pr4PClO8,-3.5529192248809522
24725,Ba2NdWO6,-3.052405928000001
24726,Tb3Pd4,-0.9258625257142857
24727,Rb2Mn2Be3F12,-3.304598241361161
24728,LuGeAu,-0.7776848033333336
24729,KGdO2,-3.042782968250001
24730,ZrAu4,-0.41381610449999967
24731,Tl8Sb21As19(PbS17)4,-0.5325120766180547
24732,Ho20In40Rh19,-0.5954729748101262
24733,Sr7Au3,-0.5345297131666669
24734,Ti2RePd,-0.4879326004166664
24735,BiTeO4,-1.6138295879166666
24736,Ta2GaC,-0.516784010624999
24737,LiZnAsO4,-2.0007495202380947
24738,LaAsRh,-1.1551849183333331
24739,Pr(NiGe)2,-0.6845160130000003
24740,Rb3DyV2O8,-2.718324416607143
24741,Ce3PBr3,-1.8057718079761902
24742,RbNa2Mn3P4ClO14,-2.574392075309195
24743,Sr2DyTaO6,-3.6029169818333338
24744,Cs6Na2Nb6H36O37,-1.8528300559274682
24745,BaCaB2O5,-3.2069785217592592
24746,Ta3Os,-0.2637476487500017
24747,Ba3Re2O9,-2.6871007539285725
24748,Zr6CI14,-1.248255324285714
24749,CeAl3Pd2,-0.8204500525
24750,SrUO4,-3.669629598611111
24751,TcOF4,-2.3193489147222226
24752,Ba3HoRu2O9,-2.639758437333334
24753,Ho3Ge3Ru2,-0.7803443631249998
24754,CsLaO2,-2.9175727932327584
24755,Ta3(InS3)2,-1.2039900780681825
24756,MnCoP,-0.6425326829214567
24757,AlWO4,-2.682709744999999
24758,Cs4Mg3H10,-0.3330135295131844
24759,RbScAs2O7,-2.391021052045454
24760,Sm(MnSi)2,-0.5720288161724142
24761,Cs2RbTbCl6,-2.5026607623362063
24762,V2(SO4)3,-2.0880147742279416
24763,Nb3Se12I,-0.9372066672265618
24764,KAlO2,-2.9146444837187495
24765,Cs5CaNi4F15,-2.8391239196862075
24766,Ce3(AgGe)4,-0.7361594165151515
24767,CoPtO2,-1.041663713750001
24768,NaGdCl4,-2.5259350710919546
24769,Rb2NaAsCl6,-1.7951529606551724
24770,Zr4(B5Ir4)3,-0.5410901444354844
24771,KV2SeO7,-2.1264383075312505
24772,ThTl3,-0.16220083249999995
24773,ZnCoPHO5,-2.046118340925926
24774,Lu10Ni28As19,-0.6987330790350869
24775,SmSnRh,-0.86998547
24776,TaAgS3,-0.9600154182083337
24777,YbB4Ru,-0.480816821527777
24778,Ba3ErIrRuO9,-2.6009481643333343
24779,NaCuSe,-0.7490963979651575
24780,LuGe2Ru,-0.6623441112499991
24781,Ba2CdReO6,-2.4663713995000003
24782,Pm2AlCd,-0.3398129637499996
24783,CaYP7O20,-2.891457324137931
24784,Al3Ir,-0.6646514275
24785,K6Na3GaSb4,-0.49529147822536956
24786,Mg2GaB2Ir5,-0.5362754095833339
24787,Dy4CdPd,-0.44871961041666647
24788,LaCoSi3,-0.6414904400000004
24789,LaYIn6,-0.4480460202083334
24790,Mg2NiIrO6,-1.872774964
24791,HoZrSb,-0.8500113849999996
24792,Y3(CuSn)4,-0.5236017318181816
24793,Cs2HgCl4,-1.7699663583374385
24794,PrV2IO9,-2.29488656
24795,La3Co2Sn7,-0.5750555224999996
24796,NiGePd,-0.46258220500000036
24797,Ce4CoSi6Au,-0.7108662320833332
24798,Tm6Nb4Al43,-0.32266050669811336
24799,PrMgZn2,-0.34064332124999996
24800,AcBrO,-3.396190511666667
24801,Zr5AgSb3,-0.6941822346296299
24802,K3Ba3Li2Al4B6O20F,-3.074460502004274
24803,Mg6MnO8,-2.851013329028736
24804,YbGeRh,-0.8825664733333328
24805,Ca3Hg2,-0.471531903
24806,Mg(B6C)2,-0.16787738800000038
24807,Ni5Sn(BO5)2,-1.8596320136574083
24808,Er5P12Ir19,-0.8007625238888889
24809,TiCu4,-0.08503022216666664
24810,Eu(HoS2)2,-2.401806761785714
24811,U11(PbO12)3,-3.3950317999000017
24812,Nd2SbO2,-2.91182119
24813,PmPbAu2,-0.612214834375
24814,K2Ti(Si2O5)3,-3.1908504443472228
24815,LiPaO3,-3.3454169496666673
24816,Ti7P4,-1.1308120742424252
24817,U4Ga12Ni,-0.2669379899999999
24818,SrHfS3,-2.1129489577083342
24819,Lu(AlC)3,-0.3398952892857139
24820,HoTe,-1.4519544250000003
24821,DyFe2,-0.07881185833333267
24822,NaH3O2,-1.442093820050287
24823,KNiCl3,-1.5305219469333329
24824,Be2CuPt,-0.4596999250000007
24825,Cr3Si,-0.32290442374999984
24826,Pb2IOF,-1.7287888664999997
24827,PaTc2Sn,-0.22713236375
24828,RbCaAs,-0.8440038508333334
24829,NaBi3(BrO2)2,-1.6921870081551724
24830,ScOF,-4.1265556891666675
24831,DyB12,-0.25008072923076863
24832,LiCo2Ge,-0.22438438708333308
24833,Pb2BrOF,-1.85544369
24834,Cs2TlBr5,-1.534302961149425
24835,Dy5B2C5,-0.43408922194444344
24836,CaCd,-0.35410172500000003
24837,Rb8Nd(AsS4)4,-1.0715141889655164
24838,Ag2B8O13,-2.5115584700724645
24839,V3(Ni10B3)2,-0.3088683953448271
24840,DyRh2,-0.7451182566666669
24841,Rb2Nb3Cl7O5,-2.4609833735294124
24842,Nd2B5,-0.5148680111904765
24843,Sc2B6Rh,-0.7246850038888881
24844,Sr(AlAu)2,-0.651976247333333
24845,K2NiAs2,-0.4197084251999996
24846,TbGePt,-1.1283730958333333
24847,Y2CrSbO7,-3.0331437403030295
24848,Nd2CdNi2,-0.3567820279999999
24849,V3Cr3Si2,-0.4420242624999986
24850,Mn2In2O7,-1.9017216696238244
24851,Sr12Fe8O27,-2.433703924361702
24852,BaNaVF6,-3.523825594894636
24853,Pr3MoO7,-3.247208173636363
24854,SbO2,-1.8374915029166665
24855,Nd2HfS5,-2.209010711953125
24856,Y(ClO4)3,-0.9617141569791663
24857,BaSnHgS4,-1.142592845357143
24858,P2W,-0.3770991105555564
24859,SbS8Cl3,-0.7790378433333333
24860,Tb2Pd2Pb,-0.839918798
24861,SmSiPd2,-0.9437750043750004
24862,NaCo2HSe2O7,-1.442316704710709
24863,Cs2PbN2(ClO3)2,-1.4710537004509279
24864,SmGaPt,-1.0578171341666665
24865,PrP5,-0.5323758552777781
24866,Tm3Ge4,-0.7538468385714278
24867,Cs3Yb(SO4)3,-2.318726360166742
24868,USe2O7,-2.1654231862187494
24869,NaLuO2,-3.245642059137931
24870,KBaNdWO6,-2.8952245163000008
24871,Ba3(RhO2)14,-1.5010435857777769
24872,Tb4BBr6,-1.8197240876515153
24873,B6O,-0.805272605
24874,Ni4W,-0.10786662199999882
24875,Nd12InNi6,-0.2747467626315789
24876,Cs(BCl)6,-1.237463121187002
24877,Li3GaF6,-3.1287162274166667
24878,YVO4,-3.1912242111111113
24879,CaZnGe,-0.5302843133333335
24880,La3TaO7,-3.826411724090909
24881,Ca3Pd2,-0.6405388246666666
24882,CeNiAs,-1.0211946
24883,Ba2TmNbO6,-3.493089160666667
24884,Ce3Si6N11,-1.4490138189999997
24885,Pm2NiRu,-0.21965372000000016
24886,RbTbSe2,-1.967263778046875
24887,CeSnAu2,-0.6578062074999993
24888,AcInAu2,-0.653710078125
24889,CeThN2,-1.7287437987499992
24890,LuCuPbS3,-1.3449465023958336
24891,Cs3B6H12Se4Br,-0.6049814679103119
24892,Ca(GaAs)2,-0.6316915709999996
24893,Pr2O3,-3.7350992947500004
24894,Pr(Sn2Rh)2,-0.6321290589285715
24895,Nd(ZnP)3,-0.5938603935714291
24896,K6Sn2S7,-1.233441961825
24897,NaGa3Te5,-0.7066765593390802
24898,SmMg(BO2)5,-3.1023570943137266
24899,Dy5(CoB3)2,-0.5323586173076922
24900,Ta6Be15Ni8,-0.4086551215517249
24901,Rb2PtS2,-1.10081790825
24902,CsMgPO4,-2.9131346405377667
24903,Li3Gd(BO3)2,-2.960003497569444
24904,K2BeH4(SeO5)2,-1.6613438764835535
24905,Ca2B8H2O15,-2.835499780679013
24906,Ba6Te10Br2O25,-2.1088197255232557
24907,Nb2MoOs,-0.24319692625000044
24908,Ca5P3ClO12,-3.3123578617857157
24909,GdYScSbO7,-3.377837231515151
24910,Ce3Se2NO,-2.476472987098214
24911,ZnCu2SiS4,-0.8022498959375
24912,Mn(Ni3O4)2,-1.3614321445287345
24913,ZnSe2,-0.6441616723958337
24914,K2Sn2Se5,-0.9874307803020833
24915,SmBO3,-3.4882894863333336
24916,GdAg(WO4)2,-2.361267231805556
24917,Hf5Ir3,-0.8240981741666668
24918,V2OsW,-0.25133196624999954
24919,NaGdS2,-2.09299646070043
24920,Cr3Cu2SbS8,-0.8237129332142855
24921,U8CoSe17,-1.399114669801683
24922,CaP2H5NO7,-2.092001819401042
24923,LaZnPd,-0.7133819608333329
24924,La2SbO2,-3.037668634
24925,Lu,0.0
24926,Ti2Te2P,-1.0833630140000003
24927,CsYCdSe3,-1.5960111044381584
24928,BaTi(IO3)6,-1.3526914020512826
24929,Tb2CuPt,-0.7901987112500004
24930,Ce4UO10,-4.008392102666666
24931,La7Rh3,-0.5395727085000004
24932,Ba2MnV2HO9,-2.617436046528736
24933,Pr2Si3Pd,-0.8557549179166669
24934,La3Tl5,-0.4157234458333332
24935,UGeS,-1.1407816593750002
24936,Th2MnN3,-1.5278257554885049
24937,NaCu4(AsO4)3,-1.4346421280775865
24938,EuInPt4,-0.6936604375000002
24939,Ta2P,-0.7353625674999998
24940,Na3MnO4,-1.7964026484482751
24941,LiRhO2,-1.560123683333333
24942,BaBe2Si2O7,-3.306660260833333
24943,Ti2Co(PO5)2,-2.8909175307222217
24944,Sc3(NiGe)4,-0.7390669995454547
24945,LiSm2Os,-0.13898430958333385
24946,LiCuF4,-2.212385635555555
24947,YAs,-1.5483916908333333
24948,Na3AlP2,-0.5110306827203068
24949,Ca3SnO,-1.7673334400000003
24950,Dy2Nb3Ge4,-0.741306566111111
24951,ScMnGe2,-0.534505287399425
24952,CeSbSe,-1.5831274916145837
24953,RbCr3O8,-1.9486686831249997
24954,Y2As7Rh12,-0.6908213732539685
24955,Nd2S3,-2.3611268343750007
24956,Ca(CoAs)2,-0.6110424759999994
24957,RbMnF3,-3.0149069225862064
24958,CePPd,-1.205448482777778
24959,Ba2Br2O,-2.7722652230000002
24960,LuAlAu,-0.7984742933333328
24961,Th2Fe2Si2C,-0.60914073
24962,GdPtF7,-2.8931119936111114
24963,TiBeRh2,-0.7918117820833332
24964,Gd(BO2)3,-3.1753758040624995
24965,Na3Al2(AsO4)3,-2.3121201881077598
24966,SmGdS3,-2.379261986875001
24967,RhPb2F7,-2.3680117200000006
24968,Na2BiAu,-0.3737023207758625
24969,LuZrSb,-0.7975508883333333
24970,ErSiNi,-0.8102423458333323
24971,CePd,-0.6826430199999995
24972,YbAlCu5,-0.27940143285714264
24973,Na2Mn3(PO4)3,-2.543108429844827
24974,K2Fe2As2O9,-1.8808621159000003
24975,Nd4Se3N2,-1.9645707196701383
24976,K2CeTa5O15,-3.347191007217391
24977,TmSbRh,-1.0439585830555547
24978,Ba2MgSi2O7,-3.366164415416667
24979,BaB4O7,-3.0227349664930547
24980,UAgF6,-3.2639737133333337
24981,Ba2GeSe4,-1.6233081013392854
24982,K3MnO3,-1.7213114381330048
24983,K2MgH4,-0.3475502194285716
24984,K2U(PdS2)3,-1.1804717608125006
24985,K2RbHoV2O8,-2.73908550525
24986,Rb2HgF4,-2.430053237142857
24987,CeBiPd,-0.849673878333333
24988,KTiF4,-3.5006986891805556
24989,KGaTe2,-0.9086747551249998
24990,Ga(BiCl)4,-0.9225278121296299
24991,Ce3Ge5,-0.6735687162499993
24992,FeRe2(H2O3)4,-1.6639717252173907
24993,PrCuS2,-1.6243439765624998
24994,AsRhSe,-0.7241219032812504
24995,TiMnGe,-0.49917704042145616
24996,SmSiNi4,-0.5753274424999996
24997,Tb2AlNi2,-0.5297233060000004
24998,Er2MgAl,-0.261909465
24999,Er5Ge4,-0.8473814161111114
25000,Sr2MnMoO6,-2.649397158126437
25001,Li22(Cu3Si2)7,-0.2659797730994153
25002,Sr2MgIrO6,-2.476931792333333
25003,V3P,-0.6643107864583335
25004,K6Tl2Sb3,-0.4399209186060608
25005,PrAgAs2,-0.7729185841666668
25006,Ta2C,-0.5976598566666667
25007,Y2AgRu,-0.34565883374999995
25008,Bi(Mo2Cl5)3,-1.355440388295454
25009,CsPr(SO4)2,-2.551248633681752
25010,Na2CaP2O7,-2.8903246578975086
25011,Nd2Co3,-0.06583054999999974
25012,YFe3,-0.0609752091666671
25013,ScSnAu,-0.7608313133333334
25014,Sr3ErRhO6,-2.944344980909091
25015,CuW3Br7,-0.7994995221590903
25016,Nd5Si3,-0.5636253187500007
25017,MnInRh2,-0.3304595144827589
25018,BaNp(PO4)2,-3.1908448075347224
25019,TbP4HO12,-2.78621721212963
25020,RbNi4(PO4)3,-2.179911218624999
25021,EuIn2Pd,-0.6168644924999995
25022,Na2SnAs2,-0.35136507862068955
25023,Mn2PO5,-2.413822823961926
25024,Sr2(GaAu2)3,-0.5602180359848487
25025,Eu(ZnGe)2,-0.39949643499999965
25026,La(SiIr)2,-1.027116844999999
25027,RbMgAs(H6O5)2,-1.5839803251
25028,YbAsO4,-2.27998472
25029,Dy5Ir3,-0.8141041846875003
25030,TbS2,-2.0626383012500007
25031,CsFe2S3,-0.952863374551006
25032,Y(NiGe)2,-0.6951137033333332
25033,Sr2Ti2Bi2OF2,-2.2923914233333327
25034,Tm(Al5Fe)2,-0.348842853589743
25035,FeSO4F,-1.9857765854464284
25036,Rb2LaNb5O15,-3.096761244347826
25037,Hf2CuTc,-0.3375989525000005
25038,Cs2RhF6,-2.5003058100957856
25039,V5Si3,-0.5567650843750016
25040,SrLi2Sn,-0.47390840208333307
25041,Rb2WS4,-1.282692958571429
25042,Cd(CoO2)2,-1.3317354492857143
25043,La2Ge5Ir3,-0.7819997039999997
25044,HoCuS2,-1.6241369028125003
25045,TlGaTe2,-0.5804440689583332
25046,PaZnRh2,-0.6229023175000004
25047,K4CdP2,-0.3450538198095237
25048,Nd2(Zn2Ge)3,-0.4202830740909094
25049,Re4Si7,-0.37774498045454474
25050,Lu2MgSe4,-1.9513892027678565
25051,Cs3Zr2I9,-1.4654287377709363
25052,CeAl2Pd5,-0.8753750018749988
25053,Pr(MnSi)2,-0.5265430041724144
25054,XeIF7,-1.5897890397222225
25055,NdMgRh,-0.5955128933333332
25056,K3P6N11,-0.8105374042000001
25057,Tm5Zr3(Ni4As3)4,-0.8147507539814813
25058,BaCuP2O7,-2.6484095260606058
25059,Cs3GaP2,-0.3994595767432945
25060,DyNiGe3,-0.5746651970000002
25061,K2As2Pt,-0.49949668519999973
25062,CeAs2Pd3,-0.8056201958333331
25063,Cs4U3Si4O17,-3.258502222383006
25064,Cd3PI3,-0.5966189197619046
25065,Sm2Co14B,-0.14068977142156816
25066,AlBW,-0.3046703197222224
25067,La6Mn(SiS7)2,-2.015263716160045
25068,SrBiClO2,-2.4171737983333337
25069,Dy5Ni2Sb,-0.5593132012500002
25070,W6CCl18,-1.2544941743999993
25071,LiScAu2,-0.6956562670833328
25072,TaCr3(CuS4)2,-0.9985267271428577
25073,RePO5,-2.324621063333334
25074,KGeBr3,-1.3913943620999993
25075,EuBPt4,-0.6776253015277772
25076,ReF7,-2.3967554059375002
25077,Na5Li(PO4)2,-2.569386602672414
25078,TmRu3C,-0.2614933923333325
25079,Dy(FeB)2,-0.4390938616666659
25080,EuAl3Ag2,-0.32174439805555544
25081,K3LiP2O7,-2.677147550692308
25082,LuP2H4NO7,-2.3278828901111117
25083,Mg4Sn6Pt5,-0.6521325446666666
25084,Na3FeAsCO7,-1.9828912261273206
25085,Cs2Mn2(MoO4)3,-2.140971046669692
25086,Ca5(Si2Au3)2,-0.6712178293333333
25087,Mn3Ag2(P2O7)2,-2.3146090754547717
25088,Mg2VN3,-1.1281474699999994
25089,Nd2MgCu2,-0.19388784799999997
25090,YNiAs,-1.0574004838888886
25091,LiYbAs,-1.0750718852777776
25092,K2Mn2O3,-1.7642708574088661
25093,YCrO4,-2.7645474465277786
25094,Hf3NiSb7,-0.5149323154545455
25095,HoSiNi4,-0.6185112183333329
25096,K5Li2EuF10,-3.2265705388425925
25097,PuH3,-0.49327373624999993
25098,ZnSiP2,-0.3134300504166667
25099,Mn3Mo3C,-0.08354916268472883
25100,Yb5(InSb3)2,-0.8370036403846157
25101,RbTe,-1.0483194079166671
25102,SrSiPt,-0.961504920555555
25103,NdMg2Cu9,-0.16687889208333276
25104,Ba6Cu34S27,-0.718870376632462
25105,TbCrO3,-3.2153477665
25106,BaP2PdO7,-2.6109397053787875
25107,Hf3As2,-0.9045787349999997
25108,KAgF4,-2.034761413277778
25109,Th3N4,-1.8151495614285713
25110,LiHoTl2,-0.3115152450000003
25111,Yb6Co30P19,-0.7888142089696978
25112,Nd3TaO7,-3.7464763045454545
25113,Ta2Tl4S11,-0.8961569510416668
25114,KSmP3HO10,-2.8509720126875004
25115,K2Th3Mg(MoO4)8,-2.560438972630436
25116,In15SnO24,-1.9982723478750004
25117,Lu2(Ga3Co)3,-0.4648606716071423
25118,Sb3Au2Xe2F19,-2.099313457211539
25119,Ba2TiS4,-2.0997473551190473
25120,Ba3CaTa2O9,-3.4542387710000013
25121,Sr2B5BrO9,-3.0328936124509815
25122,HoTeClO3,-2.60498611875
25123,Al2CdCl8,-1.8534959536363635
25124,Sr(Ni2Sn)2,-0.31653660523809485
25125,BaLa2(SiS4)2,-1.8687687361538465
25126,Mg2Al2Se5,-1.310096029079861
25127,PPb2IO4,-2.0727303813541678
25128,Sn7Ru3,-0.2102279700000004
25129,Mo3P5Pb3O23,-2.355782144975489
25130,NaYGeO4,-2.8636893697454835
25131,Cs2CeO3,-2.6745016659770116
25132,AlN,-1.5843970050000005
25133,Rb2ZnGeO4,-2.0058760101562494
25134,SmMgPd,-0.6714204927777779
25135,CeB4,-0.6277463433333338
25136,V2Cu3NiO6,-1.6212210912499998
25137,CaPtF6,-2.6802502806249997
25138,Ce3S2O3,-3.3329453048437507
25139,Sr2HoMoO6,-3.104694236833333
25140,YbNbO4,-3.044650774166666
25141,ThAlRh,-0.9083267422222229
25142,CeCu6,-0.11163717749999995
25143,HgAs2Xe5F22,-1.5635821388333335
25144,HfInPd2,-0.6887904774999996
25145,BaSn2(HO2)2,-1.9066934022222217
25146,Ho(CuGe)2,-0.48717931400000014
25147,Yb2(Ga3Ir)3,-0.624283356607143
25148,Tl3PS4,-0.6765972169791663
25149,MoPt,-0.3188038250000016
25150,ErH3,-0.73502894375
25151,Na2Tl,-0.11211155172892706
25152,Li2Ta2(OF2)3,-3.4770741189743593
25153,MnPb(SO4)2,-1.9894211022234203
25154,Rb2Ni3Se4,-0.8454138460416666
25155,Zr2NiAs2,-1.01279629
25156,GeTePt,-0.5906329741666667
25157,HfSCl6O,-1.7780522900694449
25158,UH4(NO5)2,-1.6124644214705892
25159,Ca2BClO3,-3.2137379595238085
25160,Tb8Se15,-1.9660602926879533
25161,NdSe,-2.0663120911718744
25162,U2Fe3Si5,-0.4722993049999985
25163,Sr2EuBeO5,-2.9789031037037037
25164,Cs(CrS2)2,-1.120439203990147
25165,Sm2Si3Pt,-0.9171709266666674
25166,WCl2,-1.1343847508333325
25167,Rb2UH4(SeO6)2,-1.8763370574851186
25168,ScZn2,-0.3462877408333333
25169,Na4Mn2P2O7F6,-2.7457451551778873
25170,Ba3MgNb2O9,-3.268061062333335
25171,SrSbSe3,-1.2440688974895828
25172,Rb2LiRhF6,-2.646593503333333
25173,Rb2LiTlBr6,-1.5268231206666667
25174,Ti2ReNi,-0.42776041791666586
25175,ErAlB4,-0.5014758565277783
25176,AlCrRu2,-0.3566905974999992
25177,ErMgCd2,-0.287533845
25178,EuSbPd,-0.9615437216666661
25179,RuS2,-0.8851010829166661
25180,Mg149Pb,-0.02892106146666663
25181,Na3FeSiCO7,-2.297208583050398
25182,LaP7,-0.43097036760416696
25183,HfSb2,-0.5306741212500002
25184,Bi6As4PbO20,-1.7637373977419357
25185,CeZn3Pd2,-0.5725431791666663
25186,Sr(PrS2)2,-2.3669804777380956
25187,ErRh2Pb,-0.5773328749999997
25188,Sc3P2,-1.2806359513333334
25189,RbErO2,-3.0695141368749996
25190,K3Cu3As2,-0.3080478398750004
25191,TbHfF7,-4.324183006944445
25192,CsPrS2,-2.040613047295259
25193,Na2Yb2B2TeO10,-2.4858862656727516
25194,Ca5As3ClO12,-2.741861889523809
25195,Mg(BeP)2,-0.4725459113333329
25196,Yb4As6Rh7,-0.9554869852941178
25197,La(BOs)4,-0.393268866851852
25198,SmN,-1.6570402500000014
25199,Er3Ga5O12,-2.98360233425
25200,NiH4(NO4)2,-1.0622337336666665
25201,NpCdAu2,-0.18390805218750028
25202,Hf2P,-1.0043121022222232
25203,ZnTeH12Se3N4,-0.4863864745014886
25204,NaNiO2,-1.3379307347629306
25205,CsZr(NO3)5,-1.3513343751332292
25206,Ba6In5N,-0.4782112449999995
25207,CsLu(MoO4)2,-2.5874182523275864
25208,AlVFe2,-0.4287550874999999
25209,KNa2Ga3(SiO4)3,-2.733604479219212
25210,Lu6Sb2Mo,-0.5308139066666663
25211,Ba2MgUO6,-3.4602644829999996
25212,ZrRe2,-0.3591717116666662
25213,B2Pb4O7,-2.0464207906410254
25214,Ce2Co17,-0.08494618973684223
25215,Na10NbGaAs6,-0.4744641607231799
25216,TeSe2,-0.3195974215624992
25217,Tm(Al2Fe)4,-0.42902611897435877
25218,K8V2(S2O9)3,-2.215019641750001
25219,Sm8Ga21Ru11,-0.5524929820624997
25220,Gd(FeGe)2,-0.4481991260000001
25221,Na2CaPO4F,-3.032448045437421
25222,Ba16Nb5N19,-1.018638838874999
25223,Ba6Ti5S15O,-2.1039927214274687
25224,Sc2CoSi2,-0.8134225569999991
25225,Hg3(SeBr)2,-0.6479442928125001
25226,Sc5Ge4,-0.8438774305555552
25227,Zr(TlSe)4,-0.93773488074537
25228,Y5Ge3,-0.8331971766666673
25229,SnPtSe,-0.7174024324479161
25230,Tb3Ge3Ru2,-0.7676296393749995
25231,AlCuCl4,-1.5768964483333334
25232,Er5Ru2,-0.39130965857142896
25233,TbTaO4,-3.733039660833333
25234,Tb12(MnC3)5,-0.3416096612392234
25235,NdAsO4,-2.8024053274999994
25236,Hg3As2F12,-2.1400876332352943
25237,TaBi4ClO8,-2.1266903675000006
25238,Sr2InPt2,-0.8137586156666672
25239,K5Sc3F14,-3.76673066
25240,Pu(SiNi)2,-0.6416055519999986
25241,Mn3GaC,-0.1205078892586215
25242,Pr3SbO7,-3.2696634372727273
25243,Tb6CoTe2,-0.7582235338888894
25244,CeAu6,-0.37889989857142836
25245,LaMoBrO4,-2.6295905850000003
25246,PmCdPd2,-0.6631772443749995
25247,SrHg,-0.5302574908333335
25248,ScAlIr2,-1.0091572212499997
25249,Ca3Ga4O9,-2.7388893073958336
25250,Li(TiS2)2,-1.679089646071429
25251,Lu3Al5O12,-3.7254380148750004
25252,RbEr2Cu3S5,-1.4696339189204546
25253,Rb2ZnO2,-1.5484322495
25254,V3GeN,-0.7928466879999988
25255,AsN(OF3)2,-1.8927138085000004
25256,Cs2NaGaF6,-3.062111911991379
25257,CoB,-0.40207765458333355
25258,Na2SnGe2(HO4)2,-1.9735117072068968
25259,NaV3H6(SO7)2,-1.9511172433769888
25260,RbCaSb,-0.8635371291666664
25261,LaBiPd,-0.993600581666667
25262,NdCuSn,-0.5873635233333333
25263,NdHO,-2.429707191666667
25264,Ba6Bi2(TeO6)3,-2.379263940000001
25265,CrFeP,-0.5579804536111107
25266,KSbF4,-2.877403275083333
25267,Sr5Cr3O12F,-2.7864194509920632
25268,Na5La(MoO4)4,-2.33990363106764
25269,Nd8Sb2S15,-1.999355965074999