,formula_pretty,formation_energy_per_atom
11932,Dy3Rh,-0.5208985043750003
11933,CsAs2Se3,-0.7085660566603806
11934,SrTaF7,-3.8571685026851856
11935,Hf5FeTe3,-0.7152329527777792
11936,LuCoSn,-0.4722860116666657
11937,Ca19In8N7,-0.7633892674999994
11938,Lu(FeGe)6,-0.27687328615384604
11939,Cr3P,-0.33962141395833356
11940,Na2Pd(S4O13)2,-1.711329979948742
11941,Th(CuP)2,-0.771774211333333
11942,Cs2KTbCl6,-2.519056620886207
11943,Zn2Cu(AsO4)2,-1.6322417615384617
11944,Ta2Au,-0.04220138133333459
11945,ScSnPd,-0.8513159127777783
11946,GdZnSi,-0.6053927899999998
11947,Rb2TlGaF6,-2.8375396700833333
11948,K6InP3,-0.32945321229999996
11949,Ni3B7IO13,-2.3620875764236104
11950,LiPm2Ru,-0.17396065833333285
11951,AlGeRu2,-0.4954061537500003
11952,Li2AlPt,-0.7033226466666664
11953,RbSmGeSe4,-1.4130037084821427
11954,ErSnPd,-0.9320272594444445
11955,V3Os,-0.3556126487500002
11956,Sr3Fe2(SeO3)6,-1.9117839510021546
11957,Ba11(Cd4Bi7)2,-0.649176062727273
11958,Nd2CdCu2,-0.26340150799999973
11959,Gd5Ge4,-0.8411585647222211
11960,Ag6GeSO8,-1.0876716070703125
11961,Ca4Mn3B3CO15,-2.7892145985112724
11962,LaInPt4,-0.8268389808333332
11963,RbNb(BO3)2,-2.8931233937833336
11964,LiCeTl2,-0.27614141375
11965,Lu2Co12P7,-0.8119249149206341
11966,Er5(In2Pt)2,-0.8160803004545456
11967,SrAsPd,-0.9657052472222224
11968,Ba2U(Cu2Se3)2,-1.2234468995432681
11969,Cs3SbO4,-1.8961418185991379
11970,Na3InAs2,-0.43409792056752866
11971,RbFeP2O7,-2.5345355290151512
11972,CaZn,-0.2458217399999998
11973,CsBi(MoO4)2,-2.0250016269109197
11974,Ti4CoBi2,-0.3110353383333333
11975,ZnH8C2N4(ClO)2,-0.8593158342105273
11976,Na2CdSn,-0.20307321202586204
11977,CeSb2Pd,-0.93452688125
11978,YbGePd,-0.87878069
11979,Ni(ClO4)2,-0.540402421136364
11980,ErZrRu2,-0.5435103299999993
11981,K6CdTe4,-1.1232691739090905
11982,Zr2AgPdF11,-3.1302653189444443
11983,DyGa5Co,-0.47159431464285767
11984,K3PO4,-2.5404552027916667
11985,YTl(PSe3)2,-0.9126563745729165
11986,TmZrF7,-4.240089326018518
11987,Li2Mo3S4,-1.144943170462963
11988,Li2CdPd,-0.3831672066666667
11989,ThPd3,-0.9507376924999997
11990,Co8RhS8,-0.7446980232352947
11991,Sm(NiP)2,-1.0050045163333337
11992,LiGd2Ru,-0.2379671045833316
11993,La7CoI12,-1.5438575750000005
11994,Tb3TaO7,-3.855561033636363
11995,Ca2MnWO6,-2.7775446582931034
11996,Sc2Au,-0.650600358333333
11997,KHfCuF7,-3.27097072855
11998,Sm3SnN,-1.067038927
11999,Nb,0.0
12000,BiTeCl,-0.9423151566666667
12001,Er6Al7Cu16,-0.37707961551724184
12002,ZrNi2Sb,-0.6055804400000007
12003,K2NdF5,-3.7223477985625006
12004,Li7TaN4,-0.942521260486112
12005,Ho2Co2I,-0.6726041230000007
12006,Eu2Mo(WO6)2,-2.478270879705882
12007,AlNi,-0.6588078599999996
12008,Ho5Sb3,-0.974210335625
12009,US,-1.6237716815625003
12010,Tb(CoB)2,-0.557030551666665
12011,P2H19C6I7N,-0.31390276404761885
12012,TbAl9(Fe2Si3)2,-0.37458817687499957
12013,BaUO3,-3.4864610270000007
12014,LiMg3P3O11,-2.9783626118518516
12015,ThCu2,-0.20136215666666737
12016,ScGaRu2,-0.44062623312499927
12017,NaFe2P2HO8,-2.286349699515599
12018,Gd3AlC,-0.3413202840000011
12019,Ho4MgCo,-0.15425844874999997
12020,K2NaFeO3,-1.6913090357216756
12021,Ba2YMoO6,-3.0259318006666667
12022,Zr5CoSb3,-0.732236382777777
12023,K3Ta2AsSe11,-1.029875101457721
12024,Mg3Au,-0.41525235916666653
12025,Sr11(ReO6)4,-2.876766137777778
12026,Cs2KLuCl6,-2.523671504886207
12027,RbSnF3,-2.7859880956249996
12028,Y3Ni,-0.2393353543750001
12029,Ho(GaFe)6,-0.32166495884615426
12030,SbTeClO3,-1.554750475416667
12031,ErH2Cl3O13,-1.0321491063157904
12032,Tl3AsSe3,-0.5173810188616069
12033,Tb2(Ga3Ru)3,-0.5435259941071422
12034,Sr(GaS2)2,-1.4593039004166661
12035,Ce3Ga4Cl,-0.952954004375
12036,Cs3VS4,-1.4498191326616379
12037,Yb(SiPt)2,-0.9215228619999998
12038,Rb3Lu(PO4)2,-2.9782673120833327
12039,ErMgSn,-0.5339627250000003
12040,Nb3WSe8,-1.0897193057291663
12041,Nb2SeF14,-2.993452877784927
12042,SmGdCo17,-0.0797918815789468
12043,LaSnAu,-0.8679952750000007
12044,Er3Ge3Ru2,-0.7835793581249995
12045,Y2Co2I,-0.6630678386666673
12046,YbH3CN3,-0.7293146218749991
12047,Na3Li3Ti2F12,-3.3326447571910918
12048,CrAs,-0.19111381124999927
12049,KBiF6,-2.527215820375
12050,Na2PtSe2,-1.001806965558189
12051,GdGeRu,-0.6984094325000001
12052,KAgPSe3,-0.7254659069496535
12053,AgH5S2O9,-1.4500550059068633
12054,PmYZn2,-0.34222809854166636
12055,Li3GdBi2,-0.6797354716666669
12056,LiSiPd2,-0.6969599858333329
12057,CsDyZnSe3,-1.6489366249937145
12058,PPdSe,-0.5409040856423607
12059,YBe13,-0.1872078022619052
12060,LiCaGe2,-0.5130028108333335
12061,LiMgIn(MoO4)3,-2.1891218790740745
12062,LiCdHg2,-0.20479906833333328
12063,NaSc(BH4)4,-0.39168147446447227
12064,Nd(NiAs)2,-0.8261602789999991
12065,LiCaGaN2,-0.8411376001666667
12066,Ba4IrO6,-2.4838205668181814
12067,La(IO3)3,-1.494870061153847
12068,HoNi3,-0.42550186083333347
12069,As2S3,-0.42940542137500015
12070,Eu(PRu)2,-0.9707666983333325
12071,ZrGeS,-1.3039362143750008
12072,Ca3Co(SeO3)4,-2.0808785509687495
12073,Na4VP2O9,-2.6010820776795978
12074,SrNiSn2,-0.48172405541666663
12075,Tm4CdIr,-0.5435487973611105
12076,Mn3GaN,-0.3689891012586216
12077,AcRh2Pb,-0.3346316031249996
12078,Li4SnS4,-1.2746018498148155
12079,Ba4Li(SbO4)3,-2.557289834666667
12080,UPdPt4,-0.558231808333332
12081,LaSc3(BO3)4,-3.4720356045833327
12082,RbTeNO3F4,-1.9643068587500003
12083,Nd2Mo4O15,-2.4998795189682537
12084,Li2Ce2Si3,-0.5300793830952379
12085,Na2SrMnV2O8,-2.5429238543000827
12086,Lu2InNi2,-0.5583212740000001
12087,ZrCl,-1.5900553400000002
12088,Ti3V2Si3,-0.7240673275000011
12089,GdHg3,-0.3736698974999997
12090,Er8Ga3Co,-0.41743346812499976
12091,Nb3SBr7,-1.3851965496022733
12092,Er3SiSe2O10F,-3.0597018307169113
12093,Hg6Sb5Br7,-0.6107797343055554
12094,PuAs,-1.0611157324999994
12095,Ho3Ni,-0.2564154624999997
12096,HfMn2,-0.26326036278735643
12097,HfSe2,-1.6600065682291654
12098,Pr5(RuO6)2,-3.022481343947368
12099,K3Na7Mg2H12S6(NO18)2,-1.8975542087295896
12100,VSnPO5,-2.4570442132291666
12101,Tb2Ti3Si4,-0.7700287144444447
12102,U2NiSb4,-0.45669778857142823
12103,Tb3BCl3,-1.771154777380952
12104,EuF3,-3.803622284375
12105,KZn4P3,-0.2960676203750001
12106,SrInPt,-0.7652059997222219
12107,HfGaPt,-0.965450311944445
12108,Rb2MoBr6,-1.483282633333334
12109,KSb(SO4)2,-1.9628988461874997
12110,YCu6ClO8,-1.4696049110416673
12111,Y2TlAg,-0.37656560083333357
12112,Li17Pb4,-0.2902584018412697
12113,K8Hf(MoO4)6,-2.3274817272820507
12114,Lu2Si5Ir3,-0.9055892385
12115,Li3SmBi2,-0.6787457708333337
12116,Sr3(BO3)2,-3.245564732575757
12117,SmGePd,-0.9688854922222221
12118,KUVO6,-2.9902970203333337
12119,RbTlCl2,-1.7848224752083333
12120,Ba2EuWO6,-2.9693514315000002
12121,ZrPRh,-1.2781118069444446
12122,CsNpCuS3,-1.4385774143426733
12123,NaMnAsO4,-2.0263984152832513
12124,K3Na(SO4)2,-2.261550983700123
12125,Zr2Rh,-0.5493656899999996
12126,Ba2Cu(PO4)2,-2.875071853589744
12127,LaAl2Ag3,-0.33982251916666684
12128,Sm2Ge2Ru,-0.7621643950000007
12129,La3CI5,-1.5527915444444444
12130,HoB2Ru,-0.6220623202083324
12131,CrPb2O5,-1.6962362943749998
12132,CrSbSe3,-0.6863518204062494
12133,P2S7,-0.5120135776157413
12134,K2PSe3,-1.0563367818940972
12135,Cs2MoS4,-1.2779608961945814
12136,NiTeSe,-0.5448768374479164
12137,Li2AcSn,-0.40551003104166705
12138,PmNdHg2,-0.4731423443749998
12139,Ba6Na2Si4O15,-3.2177806817816097
12140,Ta2Pb2O7,-2.726337574545454
12141,La(Tl3Te2)3,-0.6704931553124998
12142,LaNiGe3,-0.6282166740000001
12143,Dy2(SeO4)3,-2.0851591686488975
12144,U2TeO2,-2.5891208939999997
12145,VCu3Te4,-0.45333628125000036
12146,CsTa(BO3)2,-3.0156240021264367
12147,PrMgNi4,-0.3074656208333331
12148,CeMg5Ru2,-0.2339871950000001
12149,KPr(SO4)2,-2.5390342332708333
12150,NaAlO2,-2.933970703512931
12151,Ho3Ga2,-0.5411451794999997
12152,Ba2ErMoO6,-3.0564845320000003
12153,FeNiPt6,-0.13637851374999954
12154,Sr5(B5Rh7)2,-0.5439752870689647
12155,Pm2IrRh,-0.6748824212499995
12156,Pr(YS2)3,-2.386524589375
12157,CoTeO4,-1.454061858750001
12158,TlV3Cd4O12,-1.941338778916667
12159,Cs7Cu6F19,-2.3690436329067883
12160,KCr5S8,-1.0895014591428571
12161,Pr(CoP)2,-0.9643580003333341
12162,LiAcTl2,-0.3119530156249999
12163,LaCuO2,-2.68907418625
12164,Sc5Si3,-0.7414160018749998
12165,NbF5,-3.357369760416667
12166,Sr21Hg109,-0.285815829423077
12167,AgPt,-0.03534701833333287
12168,CsPrCdSe3,-1.5927409441603804
12169,Hg(BiS2)2,-0.5839393739285715
12170,Tl2Pd3S2,-0.49322365613095187
12171,Zr4(AlC2)3,-0.5721341169230768
12172,K2AgF4,-2.3553502075238093
12173,Li3Pb,-0.32712353250000037
12174,RbAl(H2N)4,-0.6013700416071431
12175,SrBe3O4,-3.1129027464583334
12176,ScBe5,-0.19542277499999963
12177,Ba6Nd2Y(CuO2)12,-2.029167663925926
12178,Ti2RePt,-0.7325720404166685
12179,Sm6Fe13Sn,-0.11038346124999947
12180,K2Al2Sb3,-0.44567452175
12181,Y2TlHg,-0.44808133291666685
12182,K2Mn(SeO3)2,-1.767320905783504
12183,K2MgGeO4,-2.36137505825
12184,Li3LaAs2,-1.0237232291666665
12185,UNiB4,-0.483503863194444
12186,LuAg2,-0.34110251444444434
12187,Ti2SnC,-0.7226938504166665
12188,Ba2ErUO6,-3.677275236
12189,Ba(ZnSn)2,-0.4158695980000001
12190,Y2Si2Rh,-0.9766602366666668
12191,LiCa2InGe2,-0.5623298493055552
12192,Ce3Zn22,-0.2508806894000003
12193,Y6Ga17Pd5,-0.6930522045535709
12194,SrNi2Ge,-0.41906223291666667
12195,Th(SiRh)2,-1.0965044899999996
12196,FeNiPt2,-0.20892911999999964
12197,Li(TiTe2)5,-0.9998815974999999
12198,Li2TiF6,-3.5316194999999997
12199,Ba2UZnO6,-3.1767478190000005
12200,BaSr4U3O14,-3.6378888816666657
12201,Ho(MnGe)6,-0.32214050058355453
12202,K3Na3Nb8(PO7)5,-2.9046362396355896
12203,Ho5(SiB4)2,-0.6794232372222211
12204,Ta2ReRu,-0.37691950500000004
12205,Eu(NO3)3,-1.3216955063461542
12206,Mn23C6,-0.09446591077288884
12207,Si(PbS2)2,-0.9009077196428567
12208,Eu2CuTe2(SO7)2,-2.1025822136309515
12209,KNaCaTh(Si2O5)4,-3.312683749673492
12210,Rb2Hf2O5,-3.1372247555555566
12211,CeDyS3,-2.354081501875
12212,K2TaCuSe4,-1.1889939544218748
12213,Dy(SiNi5)2,-0.44152191192307666
12214,PuGa2,-0.4157689549999996
12215,Rb2ThF6,-3.8823639577777778
12216,Cs2NaTlF6,-2.7248719170747124
12217,SmMgIn,-0.4082127894444447
12218,Dy2Au5F21,-2.234397479732143
12219,Na5SrNbAs4,-0.6083047613113896
12220,MnCd4S5,-0.8659735298556036
12221,SrCuSi,-0.3157622322222225
12222,Sm5Sn3,-0.7080045381250004
12223,Ti3Al2NiN,-1.0055590935714278
12224,Eu(BH4)2,-0.4583148489393942
12225,Ca3Cu3(PO4)4,-2.621333987820513
12226,CrHO2,-1.9866286831250006
12227,Zr(Zn10Cu)2,-0.1154712193478259
12228,ThIn,-0.2892522799999995
12229,EuSbO4,-2.499525526666666
12230,ScNbTc2,-0.25524821624999916
12231,Yb(MnGe)2,-0.4055840131724139
12232,Ca2MgWO6,-2.995898797
12233,Y2AlZn,-0.40652340833333245
12234,KTi2H2F11,-3.206253869510417
12235,NdCrSe3,-1.4894979149062493
12236,LaCeRu4,-0.21097798499999953
12237,Ba2Mg3H10,-0.4696489606666669
12238,Be2AsH5O7,-1.8831700221666665
12239,CeF3,-4.308261651458334
12240,NiP2(H4O5)2,-1.7666634226984137
12241,Cs5Nb2S4Br9,-1.6723661789827589
12242,Cs3Ta2S11,-1.2291594876980074
12243,Rb2Cu3P4(O3F)4,-2.3684544803333343
12244,NaMn16O32,-1.8424724661928213
12245,PrB2HF10,-3.3417993184523818
12246,Lu4Co3,-0.25546490452380916
12247,Nb3SI7,-0.9133689509659093
12248,KNaS,-1.2381933550589082
12249,Pr3Bi4Pt3,-0.8417006844999996
12250,Ba(RhPb2)3,-0.24267234900000006
12251,K16Zr12Se61,-1.2816655985502103
12252,Sr2ScNbO6,-3.500700429333334
12253,SO2,-1.5221963593749994
12254,PuTe3,-1.0470399025000008
12255,Ta3N5,-1.2715924262500025
12256,SrNdNiO4,-2.629248176666667
12257,SrV2(PO5)2,-2.8159828532222226
12258,Tm2RuRh,-0.7255362195833328
12259,KIn(MoO4)2,-2.063114019833334
12260,K2CoF6,-2.476383131777778
12261,Ca2NbCrO6,-3.115843763499999
12262,Y16B4C8I19,-1.2171106330496455
12263,Mn(NbS2)3,-1.3658843601681028
12264,NaTi2(AsO4)3,-2.3579904257343554
12265,RbSnBr3,-1.5236320374999999
12266,Lu2AlSi2,-0.6641184419999995
12267,KCuS,-0.9292913745416668
12268,Cs2YbCl4,-2.580434223694581
12269,Na3W2N5,-0.6298655067155181
12270,Yb(Ni2As)2,-0.5777711107142858
12271,Ag2Mo2O7,-1.5093595153030308
12272,Nd5Co2,-0.06660888285714403
12273,BiP3(PbO4)3,-2.360371870789473
12274,Ba2MnS3,-1.8637266462176736
12275,Tb5C2Br9,-1.9012369312499997
12276,Tb2WO6,-3.305637779444444
12277,Ag3AsO4,-0.9692759593749996
12278,Na3Sb3(PO7)2,-2.274545733923719
12279,SmNiP,-1.1788621769444443
12280,La(In2Au)2,-0.458448297142857
12281,Ba2CaUO6,-3.5504369319999993
12282,ZrMnF6,-3.6635866441163785
12283,NaFeAsO4F,-2.057295082381465
12284,Y6Ti4Al43,-0.34401009157232704
12285,Ba2FeGe2O7,-2.5332071074999996
12286,AcAg2Pb,-0.2959137764583333
12287,ZnCoF6,-2.107128027500001
12288,Yb2Ru2O7,-2.2928655659090906
12289,Rb3Ti3(PO4)5,-2.9817306027150545
12290,Ba4Nb2O9,-3.2234492940000012
12291,YBr3,-2.3160381397916665
12292,TiCu2Te3,-0.6079355355555549
12293,LaSb2Pd,-0.9902026924999996
12294,K3V3O8,-2.4334849760000004
12295,Nb2SnC,-0.41302810249999844
12296,YZnSi,-0.622395618888889
12297,Nd2Au5F21,-2.2353614276785714
12298,TmAu3,-0.725009357916667
12299,Ba3ReN3,-0.7843360799999998
12300,Ho3Ru,-0.3376136818750002
12301,SmH18(IO3)3,-1.351887237903226
12302,Rb2PdSe2,-1.0645710519375
12303,K2Cu3(SeO3)4,-1.3315862083511907
12304,Ba2TaN3,-1.2545053299999995
12305,Fe3B7IO13,-2.4602954937152774
12306,KH3(SO4)2,-1.758955003875
12307,AlSCl3O2,-1.8319796990178574
12308,ErNi2,-0.4802498100000001
12309,La4MgNi,-0.16400005041666668
12310,USbAs,-0.5703073833333328
12311,NdOs2,-0.10239568833333361
12312,RbC2N3,-0.382405125833333
12313,DyErTe2,-1.4518638125
12314,DyNi,-0.45421749000000045
12315,Ce7O12,-3.9190146339473677
12316,Sb2(AuF6)3,-1.971048729782609
12317,GdPbAu,-0.6826376599999998
12318,Na2Sr3P4,-0.8240540659929757
12319,SnPt3,-0.3769972937499997
12320,CeAl3Ag,-0.3525909543333327
12321,K2OsBr6,-1.2421127617777772
12322,MgScAu2,-0.7514938837499998
12323,Pa2SbTe,-0.6426863175000008
12324,Fe(BW)2,-0.42682448366666675
12325,Rb2FeF5,-2.8995191500000006
12326,Ti3As,-0.6624946631249999
12327,Sc5Sb3,-0.9317216378125002
12328,Mg3ReH7,-0.35774200909090903
12329,Cu3PS4,-0.5201946307291667
12330,TiMo(PO4)3,-2.7135368743137263
12331,YbSn2BiO7,-2.2336868963636363
12332,Yb2TlCd,-0.4511671733333329
12333,TbCo3P2,-0.9325293905555552
12334,TlCl3,-1.1266834783333333
12335,Tm5Ni2Bi,-0.47188209666666747
12336,Hf3(Mn2Si3)2,-0.6147729898441653
12337,ScU8S17,-1.7735414733894221
12338,Tl2NiP4(HO2)8,-1.9477057174193542
12339,Ti5Ge3,-0.6958052883333332
12340,Pr3(Ge3Pt2)2,-0.9147939484615386
12341,La3AsI3,-1.631386813214286
12342,GaGeRu2,-0.3058897706250008
12343,Sm2MnTe5Cl2O13,-2.1358906316491755
12344,Na2Al2Si3(HO3)4,-2.6866435503523243
12345,Rb3Dy(PO4)2,-2.965215534940476
12346,Cr2WO6,-2.3052373294444433
12347,YbCu5,-0.2270164666666664
12348,Pr2Ni2Sn,-0.4999191589999995
12349,Mg2Ga5Cu6,-0.18539075416666662
12350,MgMnPd2,-0.47558838698275885
12351,TaTiOs2,-0.4919365733333336
12352,BaZnTe2O7,-1.978850200454545
12353,Sr3ZnCoO6,-2.392189125
12354,Tm2Ge5Ru3,-0.6151785403333335
12355,CsDyCdSe3,-1.5902855074937137
12356,PuOF,-3.7508459475
12357,KCaNd(PO4)2,-3.251592683564103
12358,Rb3BS3,-1.2429140733630955
12359,Rb4Sn2Au7,-0.3542600900000001
12360,Np(FeP3)4,-0.5732709999264709
12361,CaTiGeO5,-3.0491926654166663
12362,Eu(InS2)2,-1.2860589939285723
12363,InAsH2O5,-1.6542770533333335
12364,RbZnH2Se2BrO6,-1.4682481765144233
12365,HgI,-0.44656254000000006
12366,Zr(CuCl3)2,-1.586032302592593
12367,CsTbCdTe3,-1.2963887738218396
12368,Zn2GeO4,-1.9692918614285717
12369,Ti2Sn,-0.3331329372222231
12370,GeP2O7,-2.4805977756666655
12371,Y2AgHg,-0.42669612125
12372,LaCrS3,-1.7610555778750012
12373,YbIn5Rh,-0.3771088542857142
12374,Na2ZrSiO5,-3.0799116036781617
12375,Ac2ZnIn,-0.3119212262500004
12376,LiGaCl3,-1.714420777416666
12377,PHPb2F10,-2.6998448459523816
12378,Pr3Sb4Pt3,-1.0949143184999997
12379,Cs3Rb5Mo12(P3O17)4,-2.390366223812931
12380,K2H2Se(IO5)2,-1.3106178404908098
12381,KLi6IrO6,-1.8899388494999998
12382,HoInAu,-0.7367991311111111
12383,TmInAg2,-0.35056740249999985
12384,TaAlCo2,-0.47938204250000105
12385,KNaEuNbO5,-2.813619180505748
12386,NdH11S3O16,-1.75741908594758
12387,Ni6Ge2P,-0.4018656248148144
12388,NaFe3H6(SO7)2,-1.6743961724154504
12389,DyTl(PSe3)2,-0.9103592874062499
12390,Lu2(TeO3)3,-2.489091132142857
12391,CsFeH24(SeO10)2,-1.322307990835803
12392,Cs2NaAsBr6,-1.5567568162413792
12393,LiZnSb,-0.42964430777777807
12394,LuB4,-0.5573753568333331
12395,K2NaMnF6,-2.9909972205482758
12396,KAlSe2,-1.3827214262968743
12397,HoZn2,-0.3901205783333334
12398,HoGeIr,-0.9431932066666668
12399,Na6Ni(SO4)4,-2.1084719330300126
12400,Al2Ga2Bi2O9,-2.4684174016666676
12401,CsGe,-0.1919621099030171
12402,TbAlNi4,-0.5213035800000002
12403,Ba3Ga4O9,-2.684728346562501
12404,BaFe3(PO4)3,-2.5633422213157906
12405,Au(OF3)2,-0.9630018049999999
12406,La5Tl3,-0.35020419937500025
12407,NpS,-1.6183035209375003
12408,Tm2Cr2C3,-0.3398067204761901
12409,Yb2Pt2Pb,-0.8942011104999998
12410,Rb3Au7,-0.2764668182500003
12411,Sr3(GaP2)2,-0.8722139325925922
12412,Cs2SbBr6,-1.5302133300957854
12413,Pd3(PbS)2,-0.564590448035714
12414,CaH3Pd,-0.514891703
12415,GdMgCd2,-0.30905684749999995
12416,Li3SbS3,-1.171812610625
12417,Pr3VGeO9,-3.201096929821428
12418,Y2(CuNi)5,-0.2713503269444442
12419,InTeO3F,-1.983623897916667
12420,CuBP4H24C8(SF)4,-0.6131985264130435
12421,Ba2MgGe2O7,-2.7931089208333333
12422,HoMn2SiC,-0.5053017441724137
12423,GdCuSn,-0.5965893966666656
12424,HoInRh2,-0.7683191124999995
12425,Th2Hg,-0.13745371833333367
12426,Cu9Sb(AsS6)2,-0.4563209182291666
12427,ErAsPd,-1.1878234933333331
12428,KLi3GeO4,-2.2371889475555555
12429,Ba2VP2O9,-3.078297713333334
12430,RbCr3S5,-1.1105657864583331
12431,Y(FeGe)6,-0.27539246897435876
12432,NaSr3SbO6,-2.73731709877743
12433,V3Ag2TeS6,-1.0013806610069438
12434,RbErSe2,-1.955691798046875
12435,ScTaO4,-3.6532464999999994
12436,DyYZn2,-0.35681881166666685
12437,MnAlSiO5,-2.936077016928879
12438,Rb2Y(NO3)5,-1.4652987350000009
12439,ErGa2Co3,-0.38081365666666755
12440,Th2Sc(B2C)3,-0.5971501758333334
12441,TaAl3,-0.31820221749999966
12442,GaSiNi6,-0.3745885209375004
12443,Cs4HfO4,-2.3389760363026824
12444,Mg2BiPO6,-2.7167792005833333
12445,Cr2NiO4,-2.040816852857143
12446,TlZn(PO3)3,-2.415535830595239
12447,Nd5Ir2,-0.5121672921428565
12448,Si2Rh3,-0.8098671499999994
12449,Bi2Mo2O9,-1.886709410384617
12450,Tb2Si4Mo3,-0.6322782666666653
12451,Sb3Pd8,-0.45204083499999953
12452,K2Zr6BeCl15,-2.0811883071250006
12453,Nb8PtSe20,-1.0755642385129307
12454,CeCdHg2,-0.34573702124999994
12455,Na3Sm(PO4)2,-2.9409230682194165
12456,Li2InRh,-0.375322109166667
12457,Nd2Te3,-1.7172664535000002
12458,YSiNi,-0.7928136463888885
12459,La3InN,-0.9479193840000001
12460,Na2MoH2O3F4,-2.298330278591955
12461,Li3NdSb2,-0.9049516750000001
12462,U(MnGe)2,-0.2174817851724143
12463,Eu(GaP)2,-0.671947942333334
12464,NaLuSiO4,-3.3979503580788175
12465,Cs7Np3(Cl2O)6,-2.598982873634545
12466,Rb3Sc2Br9,-2.1293472764285712
12467,MnAlIr2,-0.5906613419827584
12468,Rb5Mo3O3F14,-2.8274766895666663
12469,BaNd2CoO5,-3.030329514444443
12470,Be17Ru3,-0.2779471376250001
12471,NdNi5Sn,-0.3323329114285727
12472,Eu2Si3Ag,-0.5204724915277789
12473,Cs2GaP3O10,-2.6567047864601294
12474,DyIn3,-0.4062978150000003
12475,TaTiTlO5,-2.9942564408333343
12476,Ba2U(PO5)2,-3.3365371151111116
12477,Nd8Ni18P11,-0.9250611451801799
12478,Pr5(Sn5Ir2)2,-0.6671317792105266
12479,Cd3(ClO)2,-1.435818600714286
12480,ScH11(BrO3)2,-1.5195187087499995
12481,EuIn2(GeIr)4,-0.48891583681818224
12482,CeCoGeH,-0.6636485225
12483,Er2Mn12P7,-0.7157236975478928
12484,Ca(BeP)2,-0.7291358793333338
12485,Nd3Si2ClO8,-3.6014683346428575
12486,Rb(PRu)2,-0.6226873528333329
12487,DyNbO4,-3.571248011666667
12488,CsReOF6,-2.6654937939367818
12489,TbCoSi2,-0.7464733575000002
12490,KYb(CO3)2,-2.3258166937999993
12491,Pr2Ti3(ClO4)2,-3.493953449833333
12492,Na8Zr6BBr20,-1.742304785473728
12493,Bi2Ru2O7,-1.5536136095454542
12494,PuCu6,-0.017777066428571686
12495,Rb2Zn5Sb4,-0.2925225672727272
12496,Eu(YSe2)2,-2.205491445744047
12497,Tb(SiNi)2,-0.8282513539999996
12498,RbTa(CuTe2)2,-0.6637293015625003
12499,Na3MgPCO7,-2.5348842044606537
12500,RbMnP3HO10,-2.48002686877694
12501,Cs3V4Te2ClO14,-2.206150168074713
12502,Sm2Ga9Ru5,-0.5119572664062497
12503,BaMo2P3O14,-2.5740764277499992
12504,Ba(ClO4)2,-1.1106991890909093
12505,SnH6(NF2)2,-1.4676554992307695
12506,Na4Mn2O5,-1.8844180229153615
12507,Na2Nd2B2O7,-3.112677583764367