,formula_pretty,formation_energy_per_atom
11352,Al(TeCl2)2,-1.3593842226785715
11353,Zn2MoSeO7,-1.7307913029403408
11354,MnAlRu2,-0.41414462948275954
11355,Tm(GaFe)6,-0.3234140908974362
11356,Sm2SiTeO4,-3.2774714346875005
11357,GdSe2,-1.9134066682291657
11358,Ga7Pd3,-0.4455987947500006
11359,K2TiSi3(HO5)2,-2.8373204599629624
11360,KTl2Bi,-0.1974341849166663
11361,Tb2Ni12P7,-0.7718764144444438
11362,In2(TeO3)3,-1.712891851607144
11363,Sm(MnGe)2,-0.47885019217241337
11364,Rb2UF6,-3.597538184444444
11365,Fe2P12W,-0.3487143261666669
11366,Ga2BiS4,-0.8805089489285715
11367,DyBiRh,-0.7432692799999998
11368,Yb2H6Ru,-0.785274837222222
11369,Pm2InHg,-0.4756247199999999
11370,Na5GeP3,-0.3568546144731799
11371,BaTbAgS3,-1.8605520468402776
11372,CsNaNbOF5,-3.2695383381369734
11373,Rb2Sb4O11,-1.9822517782352937
11374,Rb(IrO2)6,-1.2606851582894747
11375,Mg3MnH7,-0.3556384607210028
11376,CsLa(PO3)4,-2.9403717622924654
11377,PrCd,-0.31732759749999984
11378,Li2VFe(P2O7)2,-2.631999816363637
11379,TmGa3Os,-0.4813791675000004
11380,MnAl12Fe,-0.18839855342364484
11381,PmCdRh2,-0.46987880187499975
11382,Re6Te7Se8,-0.6447612510119048
11383,Zn3MoN4,-0.3629871900000001
11384,TlCr5S8,-0.9739555663095223
11385,Ba8Al10B12O41,-3.247962016690142
11386,LiCd2Au,-0.3380380183333336
11387,K2Ca(CO3)2,-2.394239031454546
11388,HoGa2Pd,-0.7993389724999993
11389,Sc3In,-0.2954346799999996
11390,RbCuSnS3,-0.8887392586458335
11391,CsGaSe3,-1.0727166149924572
11392,SmNi3,-0.35183731458333395
11393,TmCrO4,-2.790321501944445
11394,K2MgF4,-3.379465290857143
11395,Zr5InPb3,-0.2862353411111111
11396,SrCaLaSbO6,-3.096642078166667
11397,PrAlGe2O7,-2.8540715761363633
11398,Y2IrRh,-0.8441375933333326
11399,Zr3As,-0.7457732115625006
11400,CeGa6Pd,-0.4813326037499994
11401,SiPAu,-0.17580527444444508
11402,CaPS3,-1.3576473740416675
11403,SrSbF5,-3.367211970952382
11404,Rb2SO4,-2.265194921875
11405,Sr4TlFe2O9,-2.3510348734375004
11406,BaHgAs2O7,-1.929502845454545
11407,DyMoClO4,-2.688517430714287
11408,Ti3AlC2,-0.7626407166666667
11409,P2H16N4O7,-1.2380119822988502
11410,Dy2B4C,-0.5656178180952389
11411,SrSi,-0.42996193833333374
11412,IBr,-0.35388906624999983
11413,BaZr(BO3)2,-3.334657217833334
11414,NaMn8O16,-1.8770492444000002
11415,ScPIr,-1.1900224550000007
11416,CaAcZn2,-0.2726213181250001
11417,CaPmPd2,-0.7460427193749997
11418,LaGa2,-0.7035811233333327
11419,Tb5Ir3,-0.7895474256250008
11420,Sc5IrCl9,-2.2510066653333336
11421,Na4(BSe)9,-0.6859198895363932
11422,MnFe2Si,-0.3191968019827591
11423,UZnNi4,-0.2806427916666661
11424,NaSn2,-0.15559453718390812
11425,Ba2NdMoO6,-2.982740860999999
11426,CsYbI3,-1.8500136185862068
11427,LiPPbO4,-2.5020253916666664
11428,ZnSiAs2,-0.19679864374999934
11429,Rb2AgBr3,-1.5785873494444445
11430,NdTe2Se,-1.4783467155859373
11431,LiMgAlF6,-3.7195875142592594
11432,Ba3Lu(BO3)3,-3.321048173177083
11433,Mn3Sb5(IO3)3,-1.660590790439656
11434,TeI4,-0.42514344550000016
11435,TmIn5Rh,-0.3702261509523811
11436,GdZrF7,-4.200542256388889
11437,CeAl4Pd,-0.5994124408333329
11438,VAg2(PO4)2,-2.1268336359615385
11439,Cd(InS2)2,-0.8774585553571431
11440,P2O5,-2.438859942380953
11441,PmAgAu2,-0.5820859660416673
11442,NaHoF4,-3.9953324660919534
11443,Mn2SiNi2Ge,-0.3723132659770118
11444,Cs2SnAs2,-0.43249602717241376
11445,BaSn(GeO3)3,-2.3518205771428575
11446,Pr2Br5,-2.230633971785714
11447,Zr4CuSb7,-0.6455815245833326
11448,GdTiClO3,-3.511844810555555
11449,TmB2Ru3,-0.485162785
11450,Sc50In3Rh13,-0.5079474249999993
11451,NaHg3,-0.19386374788793104
11452,CrAg(PS3)2,-0.648477687208333
11453,EuAlGe2O7,-2.6687060724999996
11454,Er6Al43W4,-0.2700262141509442
11455,ZnCoH18N6Cl5,-0.7465525369354826
11456,Ho5Ge3C,-0.7310319522222228
11457,Cs12Sn2As6O,-0.5198922095320194
11458,CeCdAu,-0.545479313888889
11459,PrZnSbO,-1.8658722862500001
11460,CsDyS2,-2.070929466045259
11461,La(LuS2)3,-2.4097949298749994
11462,NaBePO4,-2.8649513341502457
11463,Li2PbAu,-0.41021117666666695
11464,Na4SnO3,-1.657075410775862
11465,Pr5Tl3,-0.3198344243750002
11466,Hf(ClO4)4,-0.8550325354761913
11467,Ho(IO3)3,-1.486524035576924
11468,Er3C4,-0.3487959078571423
11469,CsPSe6,-0.7067768972283579
11470,Ho(CuO2)2,-2.0876288228571434
11471,Mn2SiSe4,-0.6950082314624382
11472,La13(B2O13)2,-3.6744909592248076
11473,Ca9Cd4Bi9,-0.6550087161363639
11474,NaAs4BrO6,-1.6720635195043105
11475,Tm4MgRh,-0.41331304902777727
11476,Na3Ca3AlAs4,-0.8610581140595612
11477,Rb2B7H5O14,-2.413461667113095
11478,KMnP3HO10,-2.4750548792769393
11479,Nd2P7Rh12,-0.9047641244444454
11480,Er,0.0
11481,Tb3CuSiS7,-1.8230282055729177
11482,Ba4Sb2O,-1.6496246835714292
11483,KErF4,-4.036751447259259
11484,Th(MnGe)2,-0.4672049971724149
11485,Sr3PrMn2O8,-2.8673152564901474
11486,PrAgGe,-0.607913657222222
11487,Ti3Co5B2,-0.5560928323333343
11488,Pm2TlCd,-0.3510427445833333
11489,La(Cu2P)2,-0.5425400964285719
11490,ScH3NCl3,-1.57282804875
11491,Sr2MnSbO6,-2.587776833126438
11492,K2Ta3Cl9,-1.8798575111428575
11493,TmAu2,-0.8871254955555555
11494,NaPrAu2,-0.589873317887931
11495,RbPr2Cl7,-2.67849374725
11496,ScCdRh2,-0.6093279687499997
11497,NdAl4Ni,-0.5455510141666675
11498,Ba5Ru2Cl2O9,-2.509369428333333
11499,CaFeP2O7,-2.799314665833333
11500,Ta2CdO6,-2.948603220833334
11501,Ho2Ge5Ru3,-0.6317650669999992
11502,Sr3Bi(ClO)3,-2.74155705975
11503,NbBr4,-1.3263160749999998
11504,Ni(BMo)2,-0.47840178966666824
11505,BaNiIO6,-1.5267038238888897
11506,Dy,0.0
11507,DyInRh,-0.7511577766666669
11508,Rb2PtSe2,-1.0734938459374999
11509,YThFe6,-0.06662349125000115
11510,Ba2Sn,-0.6078154666666666
11511,Rb3BiCl6,-1.9211714982499999
11512,Cs2CuBr4,-1.486297665123153
11513,Sm2SeO2,-3.4211432304687492
11514,Sb2Os(OF7)2,-2.322266224736842
11515,K3Cd16,-0.09889872836842117
11516,K2SmMoPO8,-2.8138777705256413
11517,Nd2GeO5,-3.263155401875
11518,Mn6AgP7O24,-2.503886850462795
11519,Mg(ScS2)2,-2.069613378214285
11520,SrGa2,-0.5001293605555551
11521,Ta3Tl2Cl9,-1.6120365472619045
11522,Zr2SiTe2As,-0.9731702575000014
11523,ErPaO4,-4.199185686666667
11524,K3Zn2F7,-2.8467433572083336
11525,K2RbLaV2O8,-2.71300175775
11526,BaCdO2,-2.1459757218749997
11527,LaAgSb2,-0.8449374754166668
11528,Mg2Rh,-0.4210671933333335
11529,ReP4,-0.3213338941666663
11530,KBS4(ClO3)4,-1.7426581388484854
11531,Ba5B4O11,-3.1508008307083335
11532,Li2B2Se5,-0.773666401302084
11533,Cs6GaSb3,-0.4593795360086208
11534,CeSi2Ir,-0.909473071249999
11535,Cd2GeO4,-1.7723275682142854
11536,Rb7NaZn2O6,-1.4521490061907327
11537,SrGaSn,-0.5385332863888888
11538,Nd2Ni12As7,-0.5281696764285707
11539,HoB4,-0.5915577948333322
11540,Sb,0.0
11541,NaLaCuTe4,-1.076140114507389
11542,Sr3CaIr2O9,-2.378795840000001
11543,KTaGeO5,-2.73692559975
11544,Ga31Mo6,-0.13591337425675662
11545,Na6GaP3,-0.3637564899310345
11546,ErCrO4,-2.7843556500000006
11547,Cs2RbTlF6,-2.7078198051695397
11548,ThPt,-1.2149895874999999
11549,MoAs2,-0.252461455
11550,Bi4I2O5,-1.494979854772727
11551,LaTl3,-0.36475501874999994
11552,Cs2ScAgI6,-1.3905401957528738
11553,Yb(Al2Fe)4,-0.36592931692307656
11554,Er6Ta4Al43,-0.3015348964150949
11555,AgSb2F12,-2.3901029777777776
11556,LiNdHg2,-0.4570568458333335
11557,EuAl3(PbO4)2,-2.865307761428571
11558,Na2AgSb,-0.41022418369252867
11559,Eu(CoGe)2,-0.49805489899999883
11560,Na3Yb(PO4)2,-2.725680171642036
11561,Rb2RuO4,-1.7147252875
11562,Cs4Re6S13,-1.0522016544499617
11563,LuSi2Ni,-0.7930982437499994
11564,TbScSb,-0.9257806633333333
11565,HoOs2,-0.32824936499999896
11566,BaLiBO3,-2.9588598808333337
11567,CsErS2,-2.0647166635452585
11568,LaTaO4,-3.7143585304166655
11569,Er5Ni2Sb,-0.5717711293750005
11570,Ba2YB2ClO6,-3.317608720000001
11571,NiH12(BrO7)2,-0.9145454305172414
11572,ScU3Sb5,-0.5771121449999994
11573,KEuS2,-1.8321078410624994
11574,Pr3CuGeSe7,-1.5902844280338535
11575,Cd2Ru2O7,-1.407950859999999
11576,SbAs,-0.014963407499999803
11577,ErSn2,-0.5597026383333331
11578,Tc3Pt,-0.26389618624999933
11579,Mn(NbS2)4,-1.3760391290716187
11580,KGd(MoO4)2,-2.535866651500001
11581,ClO2,-0.35287193125000016
11582,SbNCl8O,-0.8338258769318181
11583,NaV3(PbO3)4,-2.112871622827586
11584,Ho5Co19P12,-0.8960727518055565
11585,Y3Ga5O12,-2.9588947936250003
11586,Na3In2Ag,-0.1441165752203064
11587,PrTeCl,-2.1812365183333338
11588,Lu2AlCo3,-0.38065646083333365
11589,ZrNi3,-0.45845552374999876
11590,RbBe2BO3F2,-3.1730380574074073
11591,ErTl(WO4)2,-2.508591966944445
11592,Ce(NiAs)2,-0.8090641019999992
11593,Pr2GeRh3,-0.7642524374999992
11594,Ho2Ge5Rh3,-0.7726960409999997
11595,As3Pb5ClO12,-1.7557023140476193
11596,Ta2Al,-0.24771952533333394
11597,Ho2(SO4)3,-2.6686422234926472
11598,Tb10Mn13C18,-0.30216419763666813
11599,VZnRh2,-0.40990274999999965
11600,Cs4U5O17,-3.3403480485278525
11601,Sr3U(Te2O7)2,-2.5255009974999996
11602,Ac2MgTl,-0.20900002708333343
11603,U2ReB6,-0.5664395136111106
11604,CsKZr6BCl15,-2.195596883858238
11605,Ba5LiMo2N7Cl2,-1.3679792869607836
11606,CaMgSn,-0.5529510366666667
11607,CeCu2SiGe,-0.5359775499999998
11608,NaNbSe2,-1.2385208865598054
11609,KLiDyF5,-3.814468640479167
11610,Lu4Ga12Ni,-0.5215630464705879
11611,Ba2VCu2F12,-3.0377135705882354
11612,CeN2,-1.1894148394444448
11613,ErCoGe,-0.6753905083333329
11614,Tb5Se2Cl3O10,-3.0299740482343744
11615,K2H3CO4F,-1.9135051584999987
11616,CeCuS2,-1.6011034953124996
11617,Yb6Al43W4,-0.22432959962264126
11618,BeSiP2,-0.37368195541666616
11619,La2SbS5Br,-1.7393573725694447
11620,Ac2CuGe,-0.3532940274999996
11621,EuPd2,-0.7073158516666661
11622,Eu(ErS2)2,-2.4041740992857155
11623,CsLaS2,-2.1228232172952586
11624,Na2FePO4F,-2.5420045708540866
11625,TaTi(PO4)3,-3.03930901872549
11626,Ba3NaNbO6,-2.9785313405956115
11627,K2NdI5,-1.7082372651250002
11628,Y2Mn(GeO3)4,-2.6546549753297035
11629,La3InGe,-0.57978513375
11630,YCuSi,-0.6570144872222213
11631,ZrGe2Rh,-0.7174927929166669
11632,Ca3Al7Cu2,-0.32673755749999955
11633,Li3Sm3(TeO6)2,-2.744251057499999
11634,ThPbI12,-0.8210555585714291
11635,BaMgP2O7,-3.116108164696969
11636,SnSb,-0.08390630750000039
11637,Cs3(Cr5Se8)4,-0.9046572485235101
11638,EuSi,-0.590388345
11639,K2Cr2O7,-1.9303364355454542
11640,Na7AlH2C4(O3F)4,-2.32102048986207
11641,SmSF,-3.3188228968750004
11642,FeCl4,-0.9976063879999998
11643,Ni17(As3O16)2,-1.4498520190909092
11644,SrCeI4,-1.7299529636111117
11645,Hf2V3Ru,-0.300676871666667
11646,Er2Re2Si2C,-0.5983071514285702
11647,KMnIO6,-1.4603925578812265
11648,Pr3BWO9,-3.31486932422619
11649,HfTlCuS3,-1.2453585612847224
11650,LaBC,-0.37464686572222095
11651,LaSiNi4,-0.5417331941666674
11652,TbBiPd,-0.9464781233333331
11653,TmNiP,-1.2186335166666662
11654,Ba3TbRu2O9,-2.627044280333334
11655,YPd3,-0.8618491791666667
11656,Ti2CoMo,-0.2610175629166669
11657,HoInAg2,-0.3643438058333337
11658,BS2,-0.7296014253472224
11659,V3Sn,-0.06510671249999955
11660,La8Ni4Br7,-1.3746725138157896
11661,AuI,-0.2658664312500001
11662,SmCu,-0.20807110375000004
11663,RbZnF3,-2.796601447
11664,K2Pb3C3O9F2,-2.0766807961052627
11665,AcYbGa2,-0.46755056437499976
11666,Ba2Nd2Si4O13,-3.512609504285715
11667,Mg149Au,-0.034081849
11668,BaSr2(PN2)6,-1.0717541574206333
11669,Yb2C3,-0.12209600799999905
11670,NaCeTl2,-0.20086122205459755
11671,KLi4NbO5,-2.5000011773939406
11672,Zr6SiI14,-1.245098340238096
11673,K5Eu2Si4O13F,-3.0379027483000005
11674,NaSiBO4,-2.915008498435961
11675,V2PC,-0.6863584845833319
11676,CdHClO,-1.41857057125
11677,Cs2GeB4O9,-2.6579502632830465
11678,MnP4H16(NO8)2,-1.7107430010580613
11679,P3BrCl14,-1.0670154420833338
11680,Ti4S8Cl6O,-1.7395243428070175
11681,Li5BiO5,-1.9488605756060615
11682,ReOs,-0.08584454000000008
11683,ZrPaTc2,-0.316362787500001
11684,Be3Cd4Si3SO12,-2.588541306005436
11685,Mg3MnNi3O8,-2.10671232786207
11686,InGa2Cl7,-1.5200285150000006
11687,Mn2CdO4,-1.8676667536945806
11688,SrCaSmBiO6,-2.8065554616666666
11689,ScSi2Rh,-0.9154071762499996
11690,TlGaS2,-0.8873946577083336
11691,Dy2ZnIn,-0.4009601550000004
11692,BaCrF5,-3.5779066271428577
11693,Ni5P4,-0.47725955981481544
11694,TiGaCo2,-0.5277307677083334
11695,Th2FeB10,-0.6107562412820504
11696,Er3(AlNi3)2,-0.589602525454545
11697,NdSF,-3.314170570208334
11698,Nd3GaO6,-3.4508853702500004
11699,CsBi3Se5,-0.8459252582944209
11700,Na4Cu2S3,-0.9860968574257668
11701,LiV2(PO4)3,-2.655832613935185
11702,Na2Pd(NO3)4,-1.0935275233212347
11703,Gd2WO6,-3.2596639086111105
11704,Th2NiC2,-0.38152839799999894
11705,K4Co(MoO4)3,-2.099508726600001
11706,Ba7Al4Ge9,-0.5177089447499995
11707,TcB2,-0.44064372277777747
11708,RbLaF4,-4.00401437625
11709,KVTeO5,-2.0795372438125
11710,NaAlBr4,-1.677589344425287
11711,Ba3Zn6Si4TeO20,-2.62707872382353
11712,Eu3AuO6,-2.539349950500001
11713,DyTlPd,-0.659141895555556
11714,KLuO2,-3.1857531757499995
11715,Ba6Y2Co4O15,-2.5921729284567903
11716,EuMgH4,-0.5010053341666664
11717,Cs4Zr3Te16,-1.0355779118140929
11718,CsSmCdSe3,-1.5950911033270476
11719,HoReB4,-0.5960143427777768
11720,Rb3As11,-0.2761874651785711
11721,Mg3Sb2,-0.4392563559999999
11722,BaZr(PO4)2,-3.2878685730555546
11723,KEr2F7,-4.229315650174999
11724,Bi2(SeO3)3,-1.454279517823662
11725,TmRe2SiC,-0.44564400933333276
11726,Na2GeN2,-0.29946405793319003
11727,Yb2(ZnGe)3,-0.46869967625
11728,SrS,-2.3950611298958338
11729,CeCu5Sn,-0.22310096999999982
11730,K2NaH5(CO4)2,-1.7579014727806508
11731,NbAs2,-0.5261645299999991
11732,Ba5AlIr2O11,-2.5535065226315785
11733,NdP,-1.5323847566666675
11734,RbVPHO6,-2.382944057583333
11735,DyCoC,-0.31570710333333213
11736,SmMnSe2ClO6,-2.099795123874411
11737,Zr3In,-0.2506585250000004
11738,TmMgAg2,-0.30752450249999974
11739,Ba2Hg,-0.38399359166666674
11740,Li4MnSn2Se7,-1.0198524437621874
11741,Yb3Ge13Rh4,-0.5134928687499993
11742,HfMnSi2,-0.6351530238577586
11743,Ho2C,-0.2984896433333321
11744,KBa(AgTe2)2,-0.9498085107916663
11745,RbTeF5,-2.737347612678571
11746,Na6S2ClO8F,-2.290804638225575
11747,La(BIr)4,-0.5820365624074084
11748,Rb2AgPS4,-0.9928564684375001
11749,YbEu3O6,-3.1878044379999992
11750,GaTc,-0.09312823875000031
11751,Tb3Al3NiPd2,-0.7936607533333329
11752,YGaPd2,-0.8979678560416664
11753,Cu5Si2S7,-0.6838163247767852
11754,K2CoH4(I2O7)2,-1.2090280750399995
11755,Ca31Sn20,-0.6561292906862745
11756,Tb7CoI12,-1.4515549342500003
11757,Cs2NbAgSe4,-1.198414346487966
11758,Cs5Ga3Se7,-1.2548603525707616
11759,SmGePt,-1.1056256800000004
11760,Pr(CoB)4,-0.4458857996296296
11761,NaLa4I7N2,-1.8345204088608378
11762,Ti3SnC2,-0.7820459450000001
11763,LiCuO2,-1.4505814108333328
11764,PBr5,-0.7817614126388891
11765,FeAg2Sn3S8,-0.641317358095238
11766,HfMnGe,-0.534687862088123
11767,Na8Al6Si6CO27,-3.022575786196121
11768,Y4CdNi,-0.29785212444444414
11769,Na3Li3Rh2F12,-2.6534020071077586
11770,U6P13Rh20,-0.8358087205982918
11771,ZrH12C2(NF)6,-1.3572065999999994
11772,Cs3Ca2Cl7,-2.5824320828160925
11773,Li5Sn2,-0.3967511166666665
11774,CaGa4O7,-2.506107837916666
11775,KPrSiSe4,-1.514595812482142
11776,GdPS4,-1.385293559097222
11777,Zr6CoSb2,-0.6104450761111132
11778,Ce3W(ClO2)3,-3.129289861538462
11779,Zn9Ga3Mo2,-0.11775137303571423
11780,TeHO3,-1.3845328499999994
11781,ScAlAg2,-0.332716924583333
11782,NdRu2,-0.15673871166666706
11783,Al(IO3)3,-1.3017925411538465
11784,TlSbCl6,-1.2526884029166667
11785,Lu3Ga5Ni,-0.6558677597222216
11786,CaSi3Pt,-0.6007957180000005
11787,Zr3(Sn2Sb)2,-0.5122656022222224
11788,MgSiN2,-1.354448663125
11789,Ce2Al6CuAu,-0.5443560609999999
11790,AsRh2,-0.45974403166666633
11791,Dy2Ni12P7,-0.7724035863492053
11792,Sm3HoS4,-2.2646230371875005
11793,Na3ErBr6,-2.013410539965517
11794,Ca14GaAs11,-1.1483855799038456
11795,Hf2Al3Au,-0.5221602733333329
11796,AcTe3,-1.2025699531249998
11797,Cs2LiAlF6,-3.4417217744195403
11798,Gd3Lu,-0.005191168750000585
11799,Ce(CuGe)2,-0.499444209
11800,ScTaN2,-1.8242437900000006
11801,Pr(CoSi)2,-0.7119788869999993
11802,Tm10In20Ni9,-0.41507208850427374
11803,MgAg2(PS3)2,-0.7183091862499996
11804,K2In2Sb3,-0.4256256408571432
11805,NdHSO5,-2.523205807578125
11806,Rb4FeO4,-1.52674796
11807,Li6Tm(BO3)3,-2.838690739035088
11808,Sr3Ru2O7,-2.360900405416667
11809,Hf5MnSb2,-0.46559933411638
11810,TiP2PbO8,-2.808871252499999
11811,GdSbPd,-1.0879631449999998
11812,Li2In,-0.2859456522222222
11813,Cs2TaCl6,-2.0686767784291185
11814,Sr3Yb2(BO3)4,-3.1211055600793647
11815,LiSnAu2,-0.3889616020833331
11816,Nd2Si3Rh,-0.9034102116666674
11817,Pr2ZrSe5,-1.9873757595898436
11818,CuTe2I,-0.4262727693749997
11819,K2PtS15,-0.6895790654374999
11820,LiScPd2,-0.7325555520833333
11821,KHg,-0.24798988775000008
11822,AlTlF4,-3.2835195263888886
11823,PmZn2Cd,-0.3342067043750001
11824,Cs3CeCl6,-2.5002511943793104
11825,LiNb(OF)2,-3.171135411805557
11826,MgCN2,-0.7975332049999997
11827,Nd(C2N3)3,-0.19683296593749944
11828,Sr2ErRuO6,-2.8780689743333325
11829,Pu2B6Os,-0.4886239172222212
11830,CdSnAs2,-0.13178138875000034
11831,CaCd3O4,-1.8629089899999998
11832,K2SbSO4F3,-2.459025496965909
11833,Li3VS4,-1.3606976965625002
11834,Y3(GaNi3)2,-0.5432080231818177
11835,Mn8PbO16,-1.8512241957379318
11836,Mg3Pd5,-0.6484976462500001
11837,Ta2Se8I,-0.9047369812500005
11838,Pr4MgRh,-0.3271420641666663
11839,Zn3SbN3,-0.050643172857142815
11840,TeO2,-1.4947043037499999
11841,Dy2CrSbO7,-3.0509341368181806
11842,Al4(B2O5)3,-3.0834730528
11843,U3Co3Sb4,-0.4876068255000007
11844,Pr3Si2S8Br,-1.8183058948214292
11845,NaPr(SeO4)2,-1.9730456738532685
11846,PrCuSb2,-0.7695890862499999
11847,Pm2SiAg,-0.431211010416666
11848,Na4Eu2GeP4,-0.6225497435945665
11849,Li2W(OF2)2,-2.7904852524074073
11850,U(SiOs)2,-0.5151294160000006
11851,NbCoSn,-0.3216163166666668
11852,Al3Pt5,-0.9079074762500001
11853,Tm3(Al3Ru)4,-0.6559649023684206
11854,Lu6FeSb2,-0.5976349655555551
11855,Li2CrP2O7,-2.6598956915277774
11856,DyAlGe,-0.6551593349999999
11857,DyMnO3,-3.059764996252874
11858,AgSb(S8F3)2,-1.141926032361111
11859,Hf3Al3C5,-0.5826982190909085
11860,Tb(BIr)2,-0.7452258266666675
11861,Sm3AuO6,-3.0775282695
11862,TmGa2Ni,-0.6571938279166663
11863,Mn2IrRh,-0.1691084764655173
11864,PmSmGa2,-0.5669594943749994
11865,CsAg5Se3,-0.4778997523106242
11866,KNd(WO4)2,-2.6565869410833343
11867,Ca4NdB3O10,-3.3653279565277785
11868,SrZr4(PO4)6,-3.259016198476191
11869,Sr2EuSbO6,-2.843115511333333
11870,Y2B3C2,-0.5043695815476192
11871,BeGeRu2,-0.27970595499999895
11872,Li3Sn,-0.3851539312500001
11873,Rb2NaCoF6,-2.7284556301551723
11874,Na2B2Se7,-0.7170204411675485
11875,Ho10In20Ni9,-0.425447364871795
11876,RbNdSe2,-1.9604074530468747
11877,K3Bi(AsSe2)6,-0.6951951444147734
11878,Al6Cd4TeO12,-2.7070657965217397
11879,Cs2RbScI6,-1.6363921978362073
11880,PrSbSe,-1.6054133299479172
11881,Cd(AuF4)2,-1.693355497727273
11882,Sr2Nb2O7,-3.3008983353030303
11883,ErMgRh2,-0.7557582900000002
11884,K2Sc2Mo(PO6)2,-2.9520787652719296
11885,CsIn3H6(Se3O10)2,-1.476488383319265
11886,ZrP2O7,-3.107043979416666
11887,Rh(OF3)2,-1.3281993794444449
11888,LaMgSi2,-0.5364485024999999
11889,Sr2CuClO2,-2.5063544049999997
11890,Ta2Mn(P2O7)3,-2.830224303597701
11891,HoGaAu,-0.7879076108333335
11892,IrS2,-0.7358809979166665
11893,Te(S2O7)2,-1.6072396368421051
11894,UGa5Ru,-0.3475809632142851
11895,Ba(Ge3Pt)4,-0.3693421194117648
11896,Sr4Nb2O9,-3.2874573094444446
11897,NaLi3GeO4,-2.2352786258668584
11898,Eu2BPd6,-0.5997592710185187
11899,NdAlGe,-0.6845157316666667
11900,UAl2,-0.19904711583333304
11901,TlPd2Se3,-0.6273568508940972
11902,Rb2NaTlF6,-2.7186392189885056
11903,Mg5Hg3,-0.21825949875000017
11904,Mg3(AlCu2)2,-0.21765905277777778
11905,GaClO,-1.979614093333333
11906,Pr2MnNiO6,-2.7638477492931046
11907,Tl2TeO6,-1.29148820888889
11908,K6HgS4,-1.149941157318182
11909,MgSb2H2F14,-2.651611451052632
11910,Sc2ZnAu,-0.5990193574999996
11911,LiSm2IrO6,-2.7421248003333334
11912,Ba4Na(SbO4)3,-2.540505563827586
11913,TaVP,-0.8237906302777785
11914,ScNi,-0.5071481924999999
11915,Pr3(NiGe)4,-0.699181306818182
11916,Tb5Bi3,-0.7057587968750001
11917,NdTlSe2,-1.6093514545052083
11918,Yb(TiAl10)2,-0.2096625618115942
11919,CaMgHg2,-0.42009454749999997
11920,LuCo5Si3,-0.6028452359259256
11921,PrMgCd2,-0.33386677624999983
11922,Tm3B5O12,-3.3771625881666667
11923,Fe7(AsO4)6,-1.7005801367567568
11924,K2P2O5F2,-2.79817135660606
11925,Zr6Al16Ru7,-0.6465055343103446
11926,EuP,-1.0214432041666655
11927,LiCuPd2,-0.2979288483333331
11928,Ba3MgIr2O9,-2.323294802000001
11929,Ba4Ru3O10,-2.290310616470588
11930,ReCl3,-1.133425550416667
11931,Ba10Li2Bi4O21,-2.3713870070720726