,formula_pretty,formation_energy_per_atom
6012,Na20Zn7Sn12,-0.1811568996419099
6013,Sm3Ga5O12,-2.9257075002499997
6014,La3Sc2(GaO4)3,-3.3809592987500006
6015,Ba2AlH7,-0.5318977952499999
6016,Ba11B26P2(H3O29)2,-2.925772862815534
6017,SrBe2(PO4)2,-3.1371628177564097
6018,Er5(Co2Si7)2,-0.6148491739130428
6019,Dy2Co3Si5,-0.7398478834999992
6020,La3MnAlS7,-2.0163253574838365
6021,UP2O7,-3.076413612166666
6022,CdBiO3,-1.442520735
6023,U8VS17,-1.7270942862740384
6024,NaLiTi3O7,-3.2098243121779206
6025,Ba2PrTaO6,-3.4755311205
6026,U(Al5Fe)2,-0.26410725961538506
6027,Na4La31(CoI12)5,-1.555813126062069
6028,Be2Re,-0.38074857833333314
6029,KCl,-2.2582342415
6030,Ba2Li3(PO3)7,-2.86024080419192
6031,K5BaNbAs4,-0.6240265363636361
6032,Er2Ge2O7,-3.075071181136363
6033,SrBe13,-0.05074548904761959
6034,SrAlH5,-0.4373403952380954
6035,Ga7Te10,-0.5772861272058826
6036,Li2AgF6,-2.073517710925926
6037,Pr2Ta3(SeO4)2,-3.1579925454791673
6038,NbAl2(SeCl4)2,-1.7481796922836543
6039,KCuPSe3,-0.7244166200052086
6040,RbN3,-0.41229142437499977
6041,Ba5Ga6,-0.41108733863636326
6042,Nd3Si2S8I,-1.758932846785715
6043,Ba7B4S13,-1.759218794887153
6044,Sm3Si6N11,-1.5042039235000004
6045,Li2SnO3,-2.2246867915277773
6046,Co2CuGe2,-0.18304028999999958
6047,BiBr3,-1.172183043125
6048,Cr2PBrO4,-2.250343710416666
6049,Li2Mn3ZnO8,-2.0181028503899836
6050,LiLu2Ru,-0.3619225070833334
6051,USnIr,-0.4660236627777768
6052,CdAg2GeS4,-0.5941576985416659
6053,Li4GeO4,-2.2978871192592587
6054,NdZn2,-0.3667220883333335
6055,Cs2MoBr6,-1.519186283429119
6056,Ca2GeO4,-2.990227975714286
6057,Ce2CdPd2,-0.6600353179999999
6058,NbSnRu2,-0.2230678887499984
6059,NaBiTe2,-0.7452970316379308
6060,Sm3Rh,-0.45506950062500007
6061,FeH4(ClO)2,-1.3064674899999997
6062,CoCl2,-0.9817973683333339
6063,Cs3Mo2(O2F)3,-2.4338134572352224
6064,BaH2,-0.6063750625000003
6065,NaMn2V3(PbO6)2,-2.226358449120691
6066,V3Ga,-0.17410187562499946
6067,Eu2P3Pt4,-0.994166595555555
6068,LiPmIn2,-0.39041365520833304
6069,SmNi4B,-0.4508529040277776
6070,La12(ReC3)5,-0.25454182296874883
6071,RbVO3,-2.4096175575000003
6072,Dy2Co12P7,-0.8029210525396823
6073,BaAs2,-0.7865548727777778
6074,LiMgSnPd,-0.5891607445833329
6075,LiCa11Sb9,-1.0881069056349202
6076,Ti4Cu2O,-0.9739886383333344
6077,Na2Ga2As3,-0.40862815669335006
6078,TiGeS3,-1.181614092541667
6079,Lu2TlAg,-0.32456468999999943
6080,NaCl,-2.109608383275862
6081,NdLuS3,-2.3747071348750004
6082,Th,0.0
6083,Tb6Ta4Al43,-0.3103612321698114
6084,Er4CdPd,-0.4603410154166667
6085,CsTbZnSe3,-1.6501095049937138
6086,Mg2IrPt,-0.5836531599999999
6087,HfF4,-4.1271504446666665
6088,BaO2,-2.1701940333333334
6089,LiSc2Rh,-0.5495435108333329
6090,NaSr3LaTi5O15,-3.515365067528736
6091,CeGa,-0.47297314375
6092,AcAg3,-0.20171196437500027
6093,CaAcRh2,-0.45515070562499993
6094,CeHoIn2,-0.40014698375
6095,ErGaCo,-0.49969857333333384
6096,OsBr4,-0.5362469404999999
6097,NaSb3F10,-2.754760610825124
6098,CsKPt6(S3O14)2,-1.5477007109447865
6099,CsGaH4,-0.31515174465517265
6100,TbCd3,-0.2816117137499998
6101,La(Mo3S4)2,-1.2148815113333333
6102,Eu2(MoO4)3,-2.3724295676470577
6103,Ho6Ti4Al43,-0.33797102808176116
6104,Sr2CrClO4,-5.784844984479168
6105,Sr3WN3,-0.9537639457142859
6106,SmZnPO,-2.018545248333333
6107,Sr2GaSi,-0.4339511877083333
6108,MnP,-0.6163286143821836
6109,TiTl2F6,-3.057929566111111
6110,Sc2TiO5,-3.806863982916667
6111,BaV2(P2O7)2,-2.8543628865873014
6112,LiZrAu2,-0.5358464333333339
6113,Pr2Co2SiC,-0.42398007833333295
6114,Tl2PSe3,-0.5581915997135418
6115,LiYbBi,-0.7857747652777777
6116,Ta2NbRh,-0.2601539000000006
6117,Zr6NCl15,-2.251794575000001
6118,AsH3OF6,-2.057480105454546
6119,Ba(CdGe)2,-0.3515574319999999
6120,CdCu2GeS4,-0.6552389484374999
6121,Tm3Ga2Ge3,-0.6835967431249994
6122,GdPPt,-1.3595683111111103
6123,Ho6Al43Cr4,-0.2679151809433963
6124,Pr11In9Ni4,-0.468921775625
6125,DyAl2Ni,-0.6367302762499998
6126,YbPd,-0.8603657549999992
6127,Dy2(GePt3)3,-0.7772376649999992
6128,EuCdPd,-0.6100370824999999
6129,Rb2LiCoF6,-2.722395638833333
6130,Ba8Zr3(SbO6)4,-2.99014351025641
6131,Li35(RuO4)12,-1.9336737004912277
6132,Ba2CoWO6,-2.578661714
6133,ReClO3,-1.8578433169999997
6134,Tb4BClO7,-3.721273983397436
6135,VCoAs,-0.42803565749999944
6136,SrIn2,-0.44699929222222234
6137,K3YbSi2O7,-2.8421944701794883
6138,NaNdO2,-2.992679847887931
6139,TmInAu2,-0.6958588341666663
6140,AgSnF6,-2.268524623333333
6141,LaH3,-0.70044086
6142,Cs2ZnH12(SeO7)2,-1.4276973682435339
6143,ZnWF6,-2.7239669443750003
6144,K2NdBr5,-2.2028224491875
6145,Tb2CI,-0.8633596250000002
6146,VPt2,-0.5437946000000006
6147,Na4ReN3,-0.4153742701508616
6148,PtF5,-1.506018870208333
6149,Y5Sn4,-0.7795019423148146
6150,Dy2OsC2,-0.3843336094999998
6151,BaGe2Au5,-0.35378052937500026
6152,NdNi,-0.3139067200000003
6153,BaZr(SiO3)3,-3.4643044378571446
6154,Tm2GaNi2,-0.6085892221666669
6155,NaTiAsO5,-2.5275995296731324
6156,Rb2CoCl4,-1.7684639775
6157,TaAs2,-0.4680538699999997
6158,U6Ta4Al43,-0.18112270028301897
6159,K3AlF6,-3.4281971997999996
6160,Ir,0.0
6161,Ba3(Ge4Ir)4,-0.38237832739130423
6162,MgAg(PO3)3,-2.5383453418154764
6163,CsVZn(PO3)6,-2.6169353786270757
6164,Al2PbSe4,-1.0606593156250004
6165,KLaTiO4,-3.3891239894761904
6166,PuB4Os,-0.49632956902777653
6167,Er2CdIn,-0.3891198400000002
6168,MgTl2H12(SO7)2,-1.5961170189650538
6169,BaCeI4,-1.7945257774999994
6170,YbGeAu,-0.8210208391666663
6171,Cs3Bi2Br9,-1.6066728336637932
6172,RbCr(SO4)2,-2.1310195640625014
6173,DySnAu,-0.8178311683333336
6174,HoHSe,-1.6471785091145836
6175,Cs2TeO4,-1.800528193694581
6176,UAg2(SeO4)2,-1.7726053594631401
6177,NaLiV2O6,-2.403395172988506
6178,TmSi,-0.7820883258333327
6179,Li4UO5,-2.8938561238333342
6180,K9In9GeSb22,-0.3672677688292679
6181,KMgAs,-0.682410472666667
6182,KBi(PSe3)2,-0.6818264628729167
6183,Pr2InNi2,-0.40872513900000057
6184,Tb2InAu2,-0.8132568049999996
6185,Eu3(GeAs2)2,-0.8099415047222228
6186,CsBe2P2HO8,-2.7382090324712647
6187,ScFeGe,-0.5547345277777782
6188,DyMgRh2,-0.7169866749999994
6189,Na3Bi,-0.3693260724137932
6190,Zr3Pb(O2F3)2,-3.664540445
6191,ScGaCu,-0.47838632583333346
6192,Co9Te5(PbO5)6,-1.4898502271000007
6193,CsNaSi2O5,-2.9089020081369736
6194,K3Bi7(SO6)4,-1.951030642605263
6195,Ba3Tm4O9,-3.627122338854167
6196,Sr2YIrO6,-2.7708035969999996
6197,Dy3Ga5O12,-2.97521546575
6198,Na3Gd(PO4)2,-2.9426173010467975
6199,Nd8Sb14Rh17,-0.8048323594871792
6200,In5AgSe8,-0.7622316582440476
6201,CsSmZnSe3,-1.6428950066603807
6202,SnGeS3,-0.6854373743750003
6203,NaYbF4,-3.294838604425287
6204,TlGeCl3,-1.285830289666666
6205,HoSnIr,-0.8498449194444448
6206,ErGePd,-0.9837118883333333
6207,Ca2MnRuO6,-2.3941991272931036
6208,Ti8C5,-0.7190868112820517
6209,Sr2P6O17,-2.851207656933334
6210,Mg(MnS2)4,-0.9960316682095495
6211,CaCoSi,-0.5087723916666658
6212,Rb8Hf(MoO4)6,-2.312538178461539
6213,Y(NiB)2,-0.5575518359999997
6214,CeAlNi4,-0.5003191541666657
6215,KSm(SO4)2,-2.5522609411875004
6216,MnAlNi2,-0.404369411982759
6217,Nb3S4,-1.3874017124999998
6218,TbAlAu,-0.7905179283333332
6219,Gd3Se3N,-2.104434767790179
6220,Co2Re5P12,-0.4301437305263167
6221,WS9Cl4,-0.8439174597767851
6222,Er(CuTe)3,-0.7101056764285717
6223,Cs4NaHf3H2F19,-3.535472906061236
6224,Sr5Al9,-0.26672856738095213
6225,La9Al5S21,-2.1312925130178564
6226,TlSbF4,-2.5028609030555553
6227,Li2CoGe3O8,-2.1073028010119055
6228,HoRu3C,-0.23077954900000036
6229,Y6Al43W4,-0.2785185896226419
6230,KCdGeAs2,-0.30272576159999964
6231,Ba2LiAl(CN2)4,-0.8761926461458334
6232,Y3(ZnAu2)2,-0.7310235922222227
6233,Li(YGe)4,-0.8562519166666662
6234,La2S3,-2.4943648978749997
6235,Sr3Zn3Te(PO7)2,-2.6387034859420293
6236,Ba2GdSbO6,-3.056832283
6237,Na2Mn2Cd(PO4)3,-2.480517465198276
6238,Sr3CrN3,-0.9835752999999993
6239,Gd3Se4O12F,-2.45647083584375
6240,SrSiN2,-1.3568023441666668
6241,TbMgPd,-0.6898389799999999
6242,Pr2NiB10,-0.5230667608974358
6243,Ta4Co2N,-0.610415405714286
6244,Bi14SO24,-1.705288660592949
6245,CeAlAu,-0.6615677891666666
6246,NaZn2(BH4)5,-0.24190569204946602
6247,K3As,-0.32180239099999985
6248,Li4Al3Ge3IO12,-2.615438569710144
6249,K2MnF6,-2.8950111609923366
6250,GdMgPd,-0.6840024999999998
6251,YSiRh,-1.0285665247222215
6252,Ni3(BO3)2,-1.97688156439394
6253,Pt2W,-0.33609640666666607
6254,Y10Cd3Ru,-0.27276037547619075
6255,Pr3Bi4Au3,-0.7399990599999995
6256,Na2Y3Te4(ClO4)3,-2.4529973020043117
6257,Gd4Si2Ni2Bi,-0.7777715058333333
6258,Zr5Sb3P,-0.9625702803703702
6259,AgAu,-0.041726028333333165
6260,SmSnAu,-0.8557741666666671
6261,FeAgO2,-1.2217076847916672
6262,LuThRu2,-0.5055409074999995
6263,MoIr,-0.32921066249999953
6264,Rb2VCl6,-1.9555058127777774
6265,Cs6Ho21S34Cl,-2.3157849129651
6266,CsNb(PO4)2,-2.8492608228831418
6267,SrLiCrF6,-3.512540619444444
6268,Eu3(AlP2)2,-1.0114762187037027
6269,KICl4,-1.2203059963333338
6270,Nd(Sn2Rh)2,-0.6302791889285706
6271,Ba3CaRu2O9,-2.477577764000001
6272,SmNbO4,-3.537960958333334
6273,Na2SbF5,-2.881346233200431
6274,PuUC3,-0.09157834149999929
6275,KSb(PS3)2,-0.7778746828416665
6276,Lu2TeO6,-3.062535761111112
6277,Na7Mg7Fe5(PO4)12,-2.690826753998254
6278,Nb3P,-0.6371013602083337
6279,KMn4(PO4)3,-2.5664968573612077
6280,TaRu3,-0.2081216962500001
6281,SmNiSb,-0.8897337183333333
6282,HfSnRh2,-0.7710352087499999
6283,KBi,-0.349874490875
6284,Tl3FeF6,-2.2821704644999996
6285,PtBr3,-0.6578217324999999
6286,TbGaPd,-0.8903227199999998
6287,Er3InN,-1.0847373150000004
6288,CeInPd,-0.7210953027777786
6289,PmErIn2,-0.45951029187500003
6290,BaTl2,-0.39097150388888896
6291,Ba2Yb2CuPtO8,-2.38822484
6292,YbZnAu,-0.7236925574999997
6293,Pr(Cd10Pd)2,-0.19394801347826088
6294,RbNiF3,-2.6171917989999995
6295,La(AlGa)2,-0.49676391200000014
6296,Hf3N4,-1.8702501125000006
6297,Sr2TlCd,-0.39045245166666653
6298,TbPtF7,-2.922576478611111
6299,Lu20Os5I24,-1.2773052545918366
6300,RhF3,-1.8373123318749998
6301,UAs2,-0.6590783483333323
6302,As2Pb(XeF6)3,-1.895658526041667
6303,TePd,-0.5763426250000006
6304,Yb6Ti4Al43,-0.2686790114779875
6305,ThPt3,-1.0824681099999998
6306,YbAgSn,-0.5724032972222225
6307,Ba2LiSi3,-0.39421600888888914
6308,La(AlGe)2,-0.47708714899999977
6309,CrMoO4,-2.1669494033333323
6310,Cs(Nb3S4)2,-1.3888314575287362
6311,Na2Zn2O3,-1.7108665133004928
6312,Ho2O3,-4.03366768275
6313,NbAgF6,-2.880986848958333
6314,Lu2SiO5,-3.8635811565625016
6315,TmF3,-4.1227359210416665
6316,BiTeI,-0.6370966283333335
6317,Mg2B24C,-0.13153407537036957
6318,HoClO,-3.513115331666666
6319,Zr3Cd3AgF20,-3.235826746358025
6320,LuNi5,-0.3402726250000008
6321,LiGaBr3,-1.4194487351666667
6322,Pm3Sn,-0.43595501937499925
6323,PW4Cl11,-1.204249198645834
6324,HoMgTl,-0.3118500933333333
6325,Na4Al3Si3CNO13,-2.847507583848276
6326,AgSb3IF24,-2.2641424128160925
6327,DyVB4,-0.7112058786111118
6328,WS2O9,-1.7992662769791679
6329,SbBr5F6,-1.493961161875
6330,Ce(SiAu2)2,-0.4621881778571425
6331,Hf9Re4P,-0.453446720238095
6332,Dy2MgPd2,-0.7806031329999996
6333,Yb2InGe2,-0.5965392779999998
6334,Rb3In(PO4)2,-2.554127101458332
6335,PmAlAu2,-0.6585913668750001
6336,La(CuSi)2,-0.5638460469999999
6337,Pr2Ni12As7,-0.5247941035714282
6338,Al2OsRh,-0.7573406562500002
6339,HoBiPt,-1.0295913500000005
6340,CoP2,-0.5329589272222227
6341,YTiSi,-0.6487469599999992
6342,LuInPd,-0.8012719244444442
6343,Gd3Sc2S7,-2.3179420859895834
6344,Sm3RuO7,-3.123639212045454
6345,Pu(SiOs)2,-0.5462453879999998
6346,Li2Mn(SO4)2,-2.1940475323729007
6347,TePb3(ClO2)2,-1.6028624209999998
6348,Nd(AlGe)2,-0.4435924500000006
6349,CsSmS2,-2.0560196922952585
6350,YbMgTl2,-0.32558649666666684
6351,Sr4BiP3O13,-3.1168798636507953
6352,SmCrB4,-0.5810458165277778
6353,Dy3Ga9Pd2,-0.6556691926785712
6354,BaSb2,-0.8492817744444446
6355,PrFeGe2O7,-2.454358982954545
6356,BaEu2PdO5,-2.626891998333333
6357,ZrTe3O8,-2.0862523693749995
6358,KNbO3,-2.8563218356
6359,GdHoIr2,-0.7846649799999987
6360,NaV(GeO3)2,-2.263812528155172
6361,GaAs,-0.35251763625
6362,Ba4As2O,-1.5792508235714284
6363,K2TeH6SeO10,-1.4974873971671883
6364,ThBr4,-2.171216622
6365,Cs2LiInBr6,-1.7051386664195398
6366,NdFeGe2O7,-2.4577999534090904
6367,DyCu5,-0.19092945666666594
6368,Na3B7O12,-2.765537145628265
6369,AcBiAu2,-0.6597842206250002
6370,Ca2Ni3Ge2,-0.5030077828571429
6371,InP(H2O3)2,-1.8783451467361114
6372,Cs2KTiF6,-3.3148399057195403
6373,CrS2,-0.8698202420833342
6374,Ba2Ti(GeO4)2,-2.8945133637179485
6375,LiGa(SeO3)2,-1.7200581528020833
6376,La20Ti11(S22O3)2,-2.394167648199588
6377,Sr2TcO4,-2.6713241433333335
6378,Tm6Co2Sn,-0.3644067422222229
6379,NaP4(RuO7)2,-2.269491898565955
6380,HoNiAs,-1.0490192041666664
6381,Ba2NaIO6,-2.2098810601551726
6382,Li(ZrS2)2,-1.8295320194047622
6383,PuTcB4,-0.5496289656944443
6384,Sn5(BIr3)2,-0.2896739287179479
6385,PuCdHg2,-0.15892832000000023
6386,PrSI,-2.0766291789583335
6387,Sr(InTe2)2,-0.9685754538095236
6388,KLaSi(CN2)4,-0.7181595121999995
6389,TiNi3,-0.48279514270833346
6390,Ta2N,-1.0367273616666668
6391,Ba2YIrO6,-2.7657642146666666
6392,YNi4B,-0.4827271093055548
6393,KCd(BO2)3,-2.5586916943636364
6394,KNpN3O11,-1.6237568585468756
6395,ErZnGa,-0.5812493174999999
6396,Tb3ReB7,-0.5892156899242426
6397,K3BiO4,-1.6478609523749999
6398,K2ZnSiO4,-2.4712488523125002
6399,Ta4CoTe4,-0.5694007213888896
6400,K6U5V2O23,-3.1304866270277785
6401,SmAsRuO,-2.03536142
6402,Ta21Te13,-0.41346942426470684
6403,K2Re3CS5N,-0.8987334582604175
6404,Tc,0.0
6405,K2TbF5,-3.7685173863750006
6406,Ba(FeO2)2,-2.089102068571429
6407,Ca3(GeP2)2,-0.7922621142592597
6408,TaGaFe2,-0.3147466043750011
6409,CeGePt,-1.11669942625
6410,Yb3Sn13Ir4,-0.46478323700000035
6411,Ba2UNiO6,-3.0844562019999997
6412,YbMoO4,-2.764651075000001
6413,Li6OsN4,-0.5386620400000003
6414,Sr16Mn8O29,-2.742021728587074
6415,Rb2W3SeO12,-2.1103059306857634
6416,Ba17Tm16Zn8Pt4O57,-3.0152678266830066
6417,YMgCu4,-0.23412124277777777
6418,Nb2ZnO6,-2.7647865047222218
6419,Tm5Ru2,-0.408957083333333
6420,AuBr,-0.4029945299999995
6421,ZrNiGe,-0.7864166050000007
6422,P3Pb5ClO12,-2.2974971528571433
6423,Ba3ZnIr2O9,-2.1130583470000013
6424,TbHSe,-1.6629615657812498
6425,Be3H42N13(ClO)3,-0.7798813840625005
6426,PrHg,-0.47432293999999997
6427,Hf6Zn6N,-0.5216394634615387
6428,Ca3PbO,-1.6893126369999998
6429,Ho2B6Rh,-0.6437612383333331
6430,NbInRu2,-0.2517391024999993
6431,Tb(CuSi)2,-0.5726232240000002
6432,KMnN2,-0.4588201960140088
6433,PbSO4,-1.9107944084375
6434,Sc2TlZn,-0.3077144683333337
6435,Mg4P6Rh7,-0.760293638235294
6436,Rb2Ta15O32,-3.133865356836734
6437,Sr2SmTaO6,-3.5468885318333343
6438,LiScPt2,-0.9624167845833336
6439,DyP3(HO)6,-1.8130479384375002
6440,BeNbRu2,-0.27589617625000074
6441,K2CoBr4,-1.460219667285714
6442,Pm3Pb,-0.3184176056250001
6443,Rb2NaAlF6,-3.4338742956551727
6444,GdFe2SiC,-0.472878532
6445,Ba(BO2)2,-3.0969257497619043
6446,NbInS2,-1.1165164165625008
6447,NaBiSe2,-0.967873832809806
6448,SnP7Au3,-0.10386877166666669
6449,Yb2Co12P7,-0.7593648330158725
6450,Nb5Si3B,-0.6669405804629633
6451,CsFe2Se3,-0.7596463624937145
6452,Tb5(SiB4)2,-0.6540222822222224
6453,RbCeSe2,-1.9212834917968742
6454,RbMgCl3,-2.2832240915
6455,Sr4RhO6,-2.6426959133333336
6456,Sm2Si5Pt3,-0.9470260569999993
6457,Mg2GeB2Rh5,-0.6383457388333327
6458,ZnFe2(SeO3)4,-1.435105868125
6459,Li2CoGeO4,-2.093525521458333
6460,PrFeGe3,-0.4923996559999999
6461,Rb2Mn(PO3)4,-2.652361397303389
6462,CsSbS6(O3F)6,-1.9351120106775328
6463,CaSmMn2O6,-2.764515817086207
6464,K2BiH4Cl5O2,-1.615400407035715
6465,Lu5Ni2Bi,-0.47798941875
6466,SrCd6,-0.1937121351190478
6467,InAg3,-0.03337902250000013
6468,SmRh3,-0.5308547187499997
6469,Tl3PO4,-1.897976166666667
6470,BaTi(SiO3)3,-3.385293965595239
6471,La2Sn2O7,-3.017273797727273
6472,Sm(IO3)3,-1.473197720192309
6473,Rb3B2P3H2O13,-2.5656030601449293
6474,TlCu(PO3)3,-2.250799057916667
6475,Ti2Sb,-0.5322835205555556
6476,Ba2CaReO6,-2.9160751624999994
6477,Y4SiS3,-1.9458671220052084
6478,CsV(NO4)2,-1.4917881773275863
6479,BiSe2,-0.5956204657291669
6480,CoRhS4,-0.7062314804166666
6481,Cd3As2,-0.09251382587499997
6482,Tb3Ge3Ir2,-0.9182424681250003
6483,SrGaBO4,-2.900819395654761
6484,EuSi2Pt,-0.8587362512499999
6485,Ba4TiAs4,-1.1068263838425925
6486,KCrS2,-1.1867720223125007
6487,SrTm2O4,-3.807866935714285
6488,RbCrCoF6,-2.8563330297222214
6489,LiHo2Ir,-0.6005650058333334
6490,LuPS4,-1.3500517718055551
6491,Ca5Sn3H,-0.6779938700000001
6492,YAg(IO3)4,-1.2689339376851858
6493,Na2Al2As3,-0.4946690390147782
6494,Na3YH6(CO4)3,-1.9867739870528731
6495,KHo3F10,-4.302041115214286
6496,Tm5Ge3,-0.8018858135416673
6497,TaFeO4,-2.669733919166667
6498,Y12Co5Bi,-0.2746666802777777
6499,MoO3,-1.9245737215624992
6500,Tm2InAu2,-0.8108050846666665
6501,CaNi3(P2O7)2,-2.483702414242423
6502,Y3Se2ClO8,-2.802969319799107
6503,KBeF3,-3.4109434170999995
6504,KAl2Br7,-1.6707120283
6505,PrTa3O9,-3.5060246134615385
6506,Rb2AgI3,-1.2921267740277778
6507,SrU(MoO4)4,-2.4386155525757585
6508,GeRh2,-0.45806010416666726
6509,K2LiRhF6,-2.6686724144333334
6510,UBN,-1.1916940047222226
6511,BaNiO3,-1.8199423979999998
6512,TaInS2,-1.1093643215625004
6513,Sc6CoTe2,-0.7578118538888895
6514,Ba(GaS2)2,-1.4622056692857146
6515,SnRh,-0.46289980124999985
6516,Nb3Tl2Br9,-1.2605271242261904
6517,SrMn(GeO3)2,-2.4458191324597705
6518,YbGa,-0.5184797687499998
6519,EuNi5P3,-0.7486068688888897
6520,MoBr3,-0.9782898593750007
6521,NdSi2Ir3,-0.951913168333333
6522,Cs2Te3,-0.9958956551724139
6523,HfZn3,-0.20414949250000003
6524,VFeP,-0.8143159711111115
6525,MgBr2,-1.8637709016666666
6526,Na3AgO2,-1.2697609477203062
6527,YAsSe,-1.5947408655034732
6528,Y2Ge5Ru3,-0.6426308343333332
6529,Cs2Sb4S7,-0.8272160905951597
6530,Rb2Se2O7,-1.5535593186079544
6531,Sm4CdPt,-0.561968820416667
6532,Ce3Sn13Ir4,-0.4973561677499994
6533,CsPuP2S7,-1.1299011885429735
6534,NiP4O11,-2.426300582083333
6535,PrCd2,-0.34109635833333335
6536,Si2Mo,-0.4983013199999995
6537,BeAgPO4,-2.379488688452381
6538,Li2Mn3SbO8,-2.1122082100328408
6539,Sm3SiAgS7,-1.783199976545139
6540,LiCaVF6,-3.5681766325925923
6541,CsLa(TaBr3)6,-1.520078323958886
6542,Rb2SbAuS4,-0.9021473143750001
6543,LuAl4Ni,-0.5225841233333336
6544,Ce(CoGe)2,-0.5810270309999993
6545,Sb3Au,-0.09318522500000048
6546,NpGa5Ni,-0.31385263946428665
6547,Pr3SiAgS7,-1.799343393211806
6548,NaCrO2,-2.2606103510129314
6549,V8GaGeS16,-1.18672643548077
6550,K3CuB2P4H3O17,-2.4120941071055557
6551,EuPb3,-0.3657604762500002
6552,BaZnAsF,-1.9923329718750002
6553,YbAl2,-0.3435554200000001
6554,Lu2PdPt,-1.1573441349999998
6555,MnIn2O4,-1.9990213618472918
6556,Ba4PdO6,-2.4218386845454543
6557,TeCl4,-1.0999905447500002
6558,Cs2LiVS4,-1.4590073070869254
6559,KNpO3,-3.1172346953499996
6560,Sn4B3Ir7,-0.2868975551785705
6561,Na2AgF4,-2.3168865335385873
6562,Tm2Si4Mo3,-0.6606205937037023
6563,NdB6,-0.47532058214285655
6564,TmCu,-0.2934959483333328
6565,LiH2BrO,-1.5046239736666671
6566,YNiO3,-2.474236319333334
6567,TlSbF6,-2.628910261041667
6568,UCuSi2Ni,-0.42757911999999865
6569,CsCuBr3,-1.2520248695862066
6570,TeOF2,-2.11795785125
6571,Ni8Ge2B3,-0.3194494124999997
6572,Nd2As6Xe5F46,-2.308966519576271
6573,LiNiPO4,-2.3653582927380947
6574,ZnH6(Se2N)2,-0.5302709926442305
6575,MnAuO2,-1.3750975232327587
6576,EuSb2,-0.8417358866666665
6577,MnSi6Pb8O21,-2.4582481749425287
6578,Ce3Ta(ClO2)3,-3.455615631538461
6579,Sc2CCl2,-1.791306994
6580,NaP2H5O8,-2.0284338428573987
6581,TlCuPSe3,-0.47941286019965307
6582,Tb3Sn7,-0.5528007415000005
6583,Sr(BrO3)2,-1.1494280485185189
6584,PrTl(PSe3)2,-0.9354906826562506
6585,Tl3BS3,-0.6367718755059525
6586,Ho7In(CoGe3)4,-0.6736390108333339
6587,SiNi3,-0.44082697999999887
6588,TaCu3(SeS)2,-0.8123606701171884
6589,Ti2P,-1.064488496666668
6590,KAg(PO3)2,-2.3339118948833337
6591,Cr2N,-0.5061162538888893
6592,Ca2(ZnAu3)3,-0.4503637007142857
6593,Ca3AlSb3,-0.9172372214285721
6594,KTi5Se8,-1.4808045741726192
6595,UCo3B2,-0.44174801722222173
6596,PdPtF6,-1.5998556368749997
6597,Zn3P2Pb3WO14,-2.1811651546376822
6598,Ce(FeP)2,-0.9956141223333332
6599,EuCN2,-0.9820260056250003
6600,EuSnPd,-0.8068495683333327
6601,ErAlNi,-0.6201112433333328
6602,GdPaRu2,-0.35533002250000045
6603,Sm6U3O17,-3.8450844925000003
6604,Ba2MnZn2(AsO)2,-1.4786223494923374
6605,Tb(SiRu)2,-0.8878432140000001
6606,B2Mo(PbO2)6,-1.9734938482539681
6607,InHSeO4,-1.5315102603348214
6608,KSrVO4,-2.790164918166667
6609,SrPr(FeO3)2,-2.4973293146666675
6610,Li3Cd,-0.18099626750000009
6611,La23Cd4Rh7,-0.4704431788235297