,formula_pretty,formation_energy_per_atom
1230,RbCrNiF6,-2.8521127147222223
1231,CaS3O10,-2.0871677733482144
1232,Ta2TcRu,-0.4127437062499997
1233,TaCu3S4,-0.8696508915625012
1234,NaNi2Mo2H3O10,-1.7056152228639847
1235,Sm11Cd45,-0.248741548482143
1236,HgP2Xe5F22,-1.7440533038055557
1237,CaSiN2,-1.406136530625
1238,TiV2O7,-2.691691609333334
1239,CeNiSb3,-0.7129826770000004
1240,TmTl3,-0.1781162316666669
1241,Cr2CuSe4,-0.752817084910714
1242,Fe3Si,-0.3040792425000003
1243,RbGa3,-0.16880684916666647
1244,Os3W,-0.05846646624999963
1245,Zr5Sn3As,-0.7740760138888889
1246,Li4MnCo5O12,-1.7325021421029267
1247,Y2Sn2O7,-3.013289928484848
1248,Cs(Nb2Cl5)3,-1.7513666522923201
1249,Er2TlIn,-0.3674309008333334
1250,Tm3(CuGe)4,-0.6152424499999999
1251,Ba3Lu2MoO9,-3.2597149436666664
1252,MgCoGe,-0.2956441183333336
1253,Sc2Te3,-1.4804939369999999
1254,Ba21(Cd2Bi9)2,-0.8568711192441859
1255,FeSiP3O11,-2.6354958290625
1256,PH10S3N2O,-0.6652001600857844
1257,AlAg2,-0.07547678944444414
1258,K2YF5,-3.754854442208334
1259,Ir3Rh,-0.021031102500000287
1260,U8CoS17,-1.675386768774038
1261,Ba2LaIrO6,-2.7118549064999997
1262,K2ZnH4,-0.33233865907142857
1263,Mg11Ti25O60,-3.4265594799305554
1264,Co(RhO2)2,-1.1679459421428575
1265,Sc2InAg,-0.3765085716666672
1266,Yb(SiRu)2,-0.7799152879999994
1267,ThBiTe,-1.043688258333334
1268,Sr3EuRhO6,-2.738764991818182
1269,NaLa(SeO3)2,-2.1840023538739217
1270,PrHoTl2,-0.35760453541666637
1271,Y3Rh,-0.5071877893750001
1272,Lu2Ni12As7,-0.5158199773809523
1273,Li10BrN3,-0.6635651804166665
1274,CsK4TlO4,-1.3981242614514369
1275,CaLaTiCrO6,-3.376725473083333
1276,Er5BiPd2,-0.7033551681250003
1277,La2MoO6,-3.177746680555556
1278,Na7(WO3)9,-2.1856124765316762
1279,Nd6Nb4Al43,-0.3301809518867924
1280,HfSnIr,-0.6949105650000007
1281,AcHgRh2,-0.313500119375
1282,Pu2C3,-0.04372491199999899
1283,Ho(SiRh)2,-1.117907984
1284,MnBr2,-1.1690421476436785
1285,CsGa(SeO3)2,-1.6984782140118533
1286,Li2FeGeO4,-2.1418246839583333
1287,SmAl3,-0.4424950587500005
1288,LuF3,-4.453407984375
1289,Mn7(PbO5)3,-1.8348298697206895
1290,Ni16GeP5,-0.44422269734848446
1291,Li5IO6,-1.9115173973611117
1292,Cs2HfI6,-1.5116763450957853
1293,Co4Cu3(NiSe6)2,-0.5971514511011907
1294,PdCl2,-0.8901962749999998
1295,Cs2Na2B10O17,-2.7872997061494256
1296,BaLa2BeO5,-3.4875618069444445
1297,PuBe13,-0.11530161714285773
1298,Rb4Re6S13,-1.0522620654619559
1299,Ca2SnS4,-1.6788588728571427
1300,LiTe3,-0.6970112412499999
1301,LaSiP3,-0.733988978
1302,Eu4BClO7,-3.0924472274358976
1303,Sr3P4,-0.9570585933333332
1304,BiIrS,-0.4193726577083332
1305,K2ZnCu3P3O12F,-2.1947315110681824
1306,Tl9BiTe6,-0.46673635062499974
1307,MgScRh2,-0.8109357762499991
1308,Gd(Al2Cu)4,-0.3133879769230762
1309,TbZn3,-0.3665672499999997
1310,SrTiN2,-1.5423174349999993
1311,CdFeSn(PO4)3,-2.3844561474999986
1312,YBi2ClO4,-2.4541056883333345
1313,Li3AsS3,-1.143608232767857
1314,Sr2CrSbO6,-2.6741177713333335
1315,Ca(HoS2)2,-2.3856457728571434
1316,SrTe,-1.9540957683333335
1317,Ho3Al5O12,-3.70570726575
1318,Li2BeSiO4,-2.9697805114583327
1319,Ti2Cr4Si5,-0.5286994987878793
1320,Cs6Dy21S34Cl,-2.313661593287681
1321,Pr5(C2Br)3,-0.8707161287499992
1322,LaGa2Rh3,-0.8144325016666656
1323,LiTb2RuO6,-2.8656643038333334
1324,Dy(SiRh)2,-1.1203898959999996
1325,CuAsPtS2,-0.5764546432499997
1326,PaPt5,-0.7467339216666661
1327,CaMo2P2O9,-2.6479941145833337
1328,UH3,-0.4019912621874999
1329,KNa2Li3Cr2(Si2O5)6,-3.033276546422069
1330,CeRh2,-0.7131395033333329
1331,InSb2S4Br,-0.7361024237500002
1332,AlNi3,-0.4340954649999995
1333,NbTeBr3,-1.1751792755000003
1334,P3Ir,-0.6492991462500006
1335,Li2SnAu,-0.5311219154166671
1336,Lu(Al2Cu)4,-0.2885550415384613
1337,Rb2Zr3OF12,-3.8595842233333335
1338,Na2SrVP2O9,-2.827432690595786
1339,La(Al4Fe)2,-0.4135325263636357
1340,Eu2Co12P7,-0.6945920796825389
1341,ZnCu2GeS4,-0.6990636896875002
1342,Pr3CuSiSe7,-1.6390710638671877
1343,HfGa2Co,-0.5113744574999999
1344,Ba2Nb6Te2O21,-2.8513743069354844
1345,Pr6Si4Ni7,-0.5975520977941173
1346,MnCd2TeO6,-1.664107031543103
1347,PmSmTl2,-0.38594539479166645
1348,Ga3Bi5Cl12,-1.2295847448749995
1349,ScPd,-0.9077707574999998
1350,ZrZn,-0.28719024500000057
1351,KEuAsS4,-1.2760677515
1352,Er2NiRu,-0.4509775337499997
1353,LaSiPt,-1.1287520433333331
1354,Ti5Te4,-0.8752131640740741
1355,ThNiSn,-0.6893773450000005
1356,HfAlZn,-0.37149190833333395
1357,Gd3CuSiSe7,-1.6151319455338538
1358,RbReO4,-2.3550645945833337
1359,YbCl2,-2.891348665
1360,Rb2VAgSe4,-1.1043663832552078
1361,SrMg2(GaN2)2,-0.8000638012962966
1362,Pr(AlBr4)3,-1.7430211542708332
1363,MgH2SeO5,-1.699592354704862
1364,Eu4I6O,-2.1102798881818177
1365,K2SmP2S7,-1.308796999961806
1366,Cs2W3SeO12,-2.114187601844767
1367,CeAgSn,-0.46602827722222234
1368,RbTlF4,-2.500163193888889
1369,CsCuSe4,-0.7390862933010057
1370,Ti2S,-1.254813364097223
1371,Na2UI6,-1.3065799981226054
1372,Gd3(MnC3)2,-0.2654543228056422
1373,Pm2SnAu,-0.7186837749999997
1374,Cs2MoCl6,-1.8523189973180072
1375,EuAsO4,-2.4551059399999993
1376,Er12Co5Bi,-0.3047140491666664
1377,Nd4Mg3Co2,-0.10653681999999993
1378,K2H6Pt,-0.39349291955555543
1379,Dy2NiB10,-0.5104153932051284
1380,Ba2GdUO6,-3.6186139979999994
1381,Tb2EuSe4,-2.1968532695535705
1382,KBa2Bi2O7,-2.122190942333333
1383,RbVH4(OF2)2,-2.261035249791668
1384,LiCrSnO4,-2.279595191904762
1385,Hf3(VGa3)2,-0.41603062136363567
1386,NaCr(PS3)2,-0.8653393111968392
1387,LiErS2,-2.1077861098958333
1388,LiMnP2O7,-2.565719600493731
1389,CsUVO6,-3.011506345881226
1390,BeH8(NO5)2,-1.2972599650000003
1391,CrNi2BO5,-2.0418554501851864
1392,U6Fe16Si7,-0.37915687620689736
1393,Rb2TeCl6,-1.681579185
1394,H15IrBr3N5,-0.6071385306250002
1395,NaVF3,-2.995754406810345
1396,Eu2B5Os3,-0.3894781250833333
1397,Sm2TiCo16,-0.12230114964912343
1398,K4MnBr6,-1.794461221357367
1399,Ga2HgS4,-0.8280167260714286
1400,HoSbRh,-1.0611989474999994
1401,Lu2CoTe2(SO7)2,-2.355092172440476
1402,CsNiF3,-2.608865408086207
1403,La2Ge2O7,-3.036388924318182
1404,CsV(MoO4)2,-2.2139859064942526
1405,FeNiP6,-0.40782621187500023
1406,Li4Sm3Ge4,-0.6728235916666659
1407,NaMn2Si3BH2O11,-2.611649919079022
1408,SF6,-2.1053871268750006
1409,CsScP2(HO4)2,-2.700455493899835
1410,Be2BHO4,-2.720264763489583
1411,Th2SeN2,-2.1728141944687507
1412,Y5Zr3(Ni4As3)4,-0.8326229898148149
1413,CoBW,-0.4329216988888878
1414,AgMo2P3O13,-2.2633191402192994
1415,Na15Pb4,-0.13618215648820353
1416,SbIF5,-2.278398583571428
1417,Ca(MgBi)2,-0.5287092359999999
1418,La7Ni3,-0.22643331250000004
1419,Li2InPt,-0.5682559266666667
1420,MgMnGe,-0.20149131597701184
1421,VPb2Se2ClO8,-1.6641156799776786
1422,AcCdAg2,-0.23408928645833305
1423,Ho2TlIn,-0.3822819758333331
1424,Mg3(AsO4)2,-2.4571656342307686
1425,SmSi3Os,-0.5809396320000004
1426,CuP4S3Br,-0.4473521222453706
1427,ZrP2S7,-0.969424301854167
1428,CeZr2F11,-4.125191605892857
1429,ErNi3,-0.43645612916666704
1430,ReH4NO4,-1.422641258
1431,MnTl2P4(HO2)8,-2.006669227997775
1432,InSiPt5,-0.5284211014285712
1433,Na7Al4P9O32,-2.8557406351127312
1434,KRb2InCl6,-1.9976471308000001
1435,U2PbS5,-1.4873098191406244
1436,Ho2Pb2O7,-2.5491246186363625
1437,Zr9(NiP2)2,-0.9809750438888898
1438,BaMg2,-0.07198978750000003
1439,Ca2MnN3,-0.9864648292385058
1440,Ba4Nd4Zn3PtO15,-2.8101731461111115
1441,InHg6As4Cl7,-0.7407255144444443
1442,SmPPd,-1.2497170544444447
1443,YGaI,-1.1853599563888888
1444,La3Pt4,-1.1419073828571433
1445,ErCd,-0.3171623800000001
1446,LaB2ClO4,-3.1433329629166655
1447,EuAlGe,-0.5288831816666667
1448,K2Ca2(SO4)3,-2.5314574687039473
1449,Li2Sm(NO3)5,-1.4291806409420298
1450,Yb(PO3)3,-2.742023067596155
1451,Er3Al3CoGe2,-0.737959779444445
1452,La8(BiSb)3,-1.0739539721428568
1453,Lu(Ni2As)2,-0.6143000000000001
1454,BaBiO3,-2.2334278330000004
1455,SnPd,-0.5318151437500003
1456,Nd4S3NCl3,-2.4149301194886363
1457,Th2CoB10,-0.6203917705128205
1458,Nd23Cd4Rh7,-0.4457944164705882
1459,K2GaAgF6,-2.6907484705166667
1460,Cs3Er5(PS4)6,-1.3841517816787665
1461,Yb4As3,-1.164452875
1462,LiSn2(PO3)5,-2.5028186702173914
1463,Sr4Cl6O,-2.96817535560606
1464,LiCu3,-0.03467872333333366
1465,BaBAsF10,-3.1754267028205136
1466,Na3Sr4Al5F26,-3.875582217863733
1467,NbCu3Se4,-0.7510871249218747
1468,Cd(AsO3)2,-1.7032414577777777
1469,TiVRe2,-0.3986645908333326
1470,Tl3Sb,-0.05765742249999972
1471,Tm2Si2O7,-3.7144930189393937
1472,B2Ru,-0.28590921944444386
1473,K2NaTiOF5,-3.326339762338506
1474,Sb9S4F39,-2.497372148846153
1475,IrSe2,-0.6565568565624998
1476,TaZnRu2,-0.3465203350000001
1477,Na9Sm(GeSe3)4,-1.1614588650804047
1478,AgBiSCl2,-0.9475018019583334
1479,EuSeClO3,-2.1330960870572913
1480,LuFeB4,-0.6602336073611106
1481,V9Cr3B8,-0.7029956406666671
1482,Ta3Mn8Al,-0.24231480612068998
1483,Rb5Tc3S7,-1.1341621606249996
1484,PrHgPd,-0.6802148122222226
1485,NdFeSi2,-0.6177573587500005
1486,SmGeAu,-0.8364189533333336
1487,Pr5Ru2,-0.19117936357142792
1488,CsAs(HO2)2,-1.7186467597413788
1489,Cs3AlP2,-0.4408375354932949
1490,Fe,0.0
1491,Ce3Sb4Pt3,-1.1489883304999993
1492,LiLaHg2,-0.46792338458333327
1493,LuPPt,-1.2995213811111104
1494,TbSiNi4,-0.6082338399999992
1495,KCu4S3,-0.5932982465468748
1496,HfPd3,-0.8830999568749993
1497,RbB2P2HO9,-2.6193611205000007
1498,Pr3Sc2(FeO4)3,-3.0818309007500004
1499,Zr3Ga2,-0.5468909720000006
1500,Gd4B3C4,-0.41386130340909105
1501,La3Ge6(Pd2Pt)2,-0.9085286359999998
1502,SmTe3,-1.2976582162500003
1503,VNiH14(O2F)4,-1.620245626696429
1504,Tb14Ag51,-0.24696611215384573
1505,Hf3Sb7Pd,-0.5501845999999996
1506,CsSbS6,-0.7473836892726293
1507,CeRhPb,-0.6431323161111114
1508,Li3Tb3(TeO6)2,-2.7794002793749994
1509,Tb(GeRh)2,-0.8890976359999996
1510,Na3VO4,-2.2947938312068974
1511,Yb5Ir3,-0.4599961762499998
1512,SmPt3,-0.9012669987499997
1513,CeAlCu4,-0.24856911583333327
1514,K2In3AgSe6,-0.987899044519097
1515,Pr2Al2Ge,-0.633439035
1516,YBi2BrO4,-2.4036058767708326
1517,K3GdCl6,-2.4867252584
1518,NdTl(MoO4)2,-2.3575475565277793
1519,Na3Bi(PO4)2,-2.507215880183703
1520,SmSnAu2,-0.6988434350000006
1521,DyAsS,-1.7245241452083337
1522,UPt2,-0.6989514350000002
1523,Tb2Al6Si4Pt,-0.522865005384615
1524,RbScBP2HO9,-2.87355193088889
1525,HfNbP,-1.0253305586111108
1526,U(FeP3)4,-0.5459695100000003
1527,NaZr2ZnF11,-3.638670999603448
1528,Er2B4C,-0.5893172780952379
1529,CaPrAg2,-0.3151244645833331
1530,AlCuAu2,-0.2577237499999998
1531,MgSc2Hg,-0.24062489624999994
1532,SrIn,-0.4252829027083336
1533,Li2PmAl,-0.18789366854166678
1534,Sm3Ru,-0.23841079937499998
1535,Pr(GePd)2,-0.8366059729999996
1536,Pr2CdRh2,-0.5681025579999996
1537,LiVRh2,-0.4130521308333339
1538,Ba2Ni3N2,-0.5106040828571433
1539,KCuO2,-1.3800155169999995
1540,Ca2MgIn,-0.30680251999999975
1541,RbCuPdSe5,-0.7226800792773438
1542,LiPmAu2,-0.6761473752083336
1543,SiP2O7,-2.7812934801666658
1544,Gd2Si2O7,-3.6297237799999995
1545,UIn3,-0.006160409999999672
1546,NbTlCl6,-1.6517596622916662
1547,Tb2Ni7,-0.38745136666666646
1548,Na3VS4,-1.2936161865193965
1549,PI3,-0.34230089583333356
1550,Cs2MnF6,-2.913648065421456
1551,AsPbClO2,-1.63748451775
1552,Na2PdS2,-1.0349589188706894
1553,CuIO4,-0.8176255991666667
1554,DyP,-1.6111775916666673
1555,Lu2Fe14C,-0.08945743000000013
1556,Ti3ZnN,-0.9715119909999999
1557,NdGa3Au,-0.5991554344999998
1558,Pr3(Al3Ru)4,-0.630184669210526
1559,Ti2O3,-3.3034396343333325
1560,LiBi(PdO2)2,-1.3837421479166663
1561,K2DyCl5,-2.5412346860624995
1562,Tl2(SeO3)3,-1.2062762866927095
1563,Sr2CoSe2(ClO3)2,-2.0804800544631408
1564,Ba3NaSm3(Si3O10)2,-3.4818641921682345
1565,YRh2,-0.7316252238888895
1566,ScGaRh2,-0.9734605056249999
1567,MgCuP,-0.4299206336111112
1568,K5Li2NdF10,-3.3456184566203704
1569,KW3Br7,-1.0672355417499995
1570,DyAgGe,-0.6548894449999997
1571,YbTaO4,-3.2070739883333332
1572,Ba(InPt)2,-0.6652616520000002
1573,CrN,-0.6915367175
1574,Cs6Si2O7,-2.38790383483908
1575,Rb8Zr(MoO4)6,-2.294840648205129
1576,Sr2LiMgSi3,-0.36999066738095215
1577,TbGe2Ir,-0.8066673231249997
1578,CsK2Mn3P4ClO14,-2.599274679842298
1579,Nd4GeO8,-3.4751914557692314
1580,CaTa2Ga2(CuO4)3,-2.460934212375
1581,Nd12Ni6Sn,-0.3027547881578945
1582,LaSi3Ru,-0.6777417220000004
1583,Ba4I6O,-2.2719838604545455
1584,Y2TiO5,-3.8595837292708346
1585,XeN2(OF4)2,-0.821544318653846
1586,NdCoSi3,-0.6178000810000001
1587,Cs2U2O7,-3.2772656564420064
1588,KNb4Ag(PS10)2,-0.988710381744048
1589,DySn2,-0.5889146300000002
1590,SrPr2Mn3O9,-2.8064105176973184
1591,MgB7,-0.13057053333333268
1592,BaTe4O9,-1.8231412692857154
1593,Sc11Os4,-0.37075231100000017
1594,GaHSeO4,-1.6083470989062505
1595,CrGeSbO6,-2.110030223055556
1596,Ca2MnReO6,-2.656355741293104
1597,K2B2Se7,-0.812309350067235
1598,Sr2BiAu,-0.8510882083333331
1599,CuAg2(NO3)4,-0.7477325078070174
1600,H5NO,-0.7933492658928577
1601,Al2FeIr,-0.6808000874999998
1602,EuNiGe2,-0.6048635462500007
1603,CeAsS,-1.7554421610416664
1604,SrV2TeO8,-2.3912174748263895
1605,Yb(TmS2)2,-2.4223043229761907
1606,MgMnF6,-3.0192252341163788
1607,K2NaAlAs2,-0.5685735170919539
1608,Na6Ni2C4SO16,-1.9767690688770814
1609,CsCd4As3,-0.25230127536637914
1610,V6FeNi,-0.17061170624999988
1611,MnBe12,-0.0629537090716185
1612,Co(NiO2)2,-1.164579169285714
1613,LiMg4Al(MoO4)6,-2.397553923703703
1614,LaGe2Ir3,-0.6756442308333336
1615,YbPdPb,-0.6993269022222219
1616,K2BaNb2S11,-1.300982525570312
1617,Ba2MnTeO6,-2.4804970587931043
1618,Re3(TeI)7,-0.4883686797058824
1619,Zr3Zn3C,-0.48540280392857127
1620,Ba5LaSi6,-0.4470604258333335
1621,Ba2ReN3,-0.788545063333333
1622,SmCoGe2,-0.6570450987500003
1623,DyGa,-0.6287857412500006
1624,La2NiRhO6,-2.5721824465
1625,Rb(AsIr)2,-0.45445529950000035
1626,K2NiP2,-0.46516016953333333
1627,HoAlPt,-1.161145840833333
1628,DyGa2Pd,-0.8001551799999991
1629,Tb2Nb3Ge4,-0.7400150725000003
1630,Ho2Ge2Ru,-0.8008083769999998
1631,HfUC2,-0.540784780000001
1632,Zr5Sn3O,-1.115564977222222
1633,Zr2(Ni7B2)3,-0.37251527155172365
1634,NdClO,-3.4712024683333347
1635,TmSb,-1.1559196783333334
1636,Ba2NbInO6,-2.960320063
1637,PmHoZn2,-0.3321252418749996
1638,HoZrRu2,-0.5203610124999996
1639,Cs2AlTlH6,-0.21111714391954023
1640,CaH24(IN4)2,-0.5994358509285713
1641,Rb2GaAgF6,-2.6999017644166665
1642,BaU2Se5,-1.6956803292773435
1643,KC2N3,-0.38766247202777826
1644,BaY2O4,-3.6566004611904757
1645,Lu3Ga8Ir3,-0.6277283385714288
1646,CeSb2Au,-0.8016870762499995
1647,Eu(CuSb)2,-0.5200312759999995
1648,ErPt3,-1.0426058500000002
1649,Na8In6Au11,-0.33628509379655186
1650,Te2SO7,-1.642220227812499
1651,Pr(GeIr)2,-0.7762026040000002
1652,YbIn5Ir,-0.3210069285714283
1653,Ba(ErSe2)2,-2.236903748839286
1654,TiAsRh,-0.8762976852777781
1655,Na5Gd(MoO4)4,-2.3290528229907173
1656,Sr2CdAs2,-0.9512628796666668
1657,HoHfF7,-4.325120283055555
1658,TlCdSb,-0.1410081211111113
1659,GdTaO4,-3.6945283733333354
1660,Te4MoBr,-0.6284315562500004
1661,EuCoGe3,-0.48562635900000045
1662,BaNa5Ca7P6(O8F)3,-3.2086101523969277
1663,TbB2Ru3,-0.46788777055555525
1664,Yb(MnSi)2,-0.4368287631724129
1665,DyYTl2,-0.3571950958333332
1666,EuCu4Pd,-0.24501027083333327
1667,Cs2NbCuSe4,-1.2217845256546331
1668,LiTlPd2,-0.40656693166666624
1669,ReSeCl,-0.9243273135590273
1670,Mn4N,-0.24622177134482826
1671,Tb3Te3N,-1.7392034621428576
1672,Cs3CeF6,-3.4669526323793107
1673,ScPt,-1.2274957424999995
1674,Co2(GeTe)3,-0.3797670006249998
1675,Ca3Ga2Si(SnO6)2,-2.812846653375
1676,Y6Mn(SiS7)2,-1.8891862292035233
1677,La2SiC(NO2)2,-2.725251292499999
1678,TmGePd2,-0.9143330147916657
1679,K2Mg(CO3)2,-2.270603760545454
1680,CuMo3I7,-0.5983334732954546
1681,Y4CdRu,-0.32542679111111167
1682,Ce4Ge9Rh13,-0.8281352551923067
1683,Ba2ZrO4,-3.430685784285714
1684,As2O5,-1.5605577653571439
1685,TlSb(PS3)2,-0.6065721238750001
1686,Na2UBr6,-1.8021739060855682
1687,Ba2TaInO6,-3.0767236049999993
1688,Tl2CuH12(SO7)2,-1.425686984771505
1689,TiCoP,-1.146553733888889
1690,RbYTe2,-1.6022763197916667
1691,GdCo5,-0.07285394750000052
1692,Rb2Na4Co2O5,-1.4455133154774542
1693,Cs3Sm7Te12,-1.631459620172415
1694,ThNiGe2,-0.7329408874999999
1695,K2RbGdV2O8,-2.7150986309642855
1696,LuAlGe,-0.6007275966666666
1697,GdCrO3,-3.1733041595000016
1698,NaSr2IO6,-2.220869565988506
1699,LaZn11,-0.23239939125000011
1700,Er5NiPb3,-0.5130240550000001
1701,Ni3Sn,-0.18520410999999903
1702,BaCuSn2,-0.4514670862500001
1703,Ge4Se9,-0.5326184925841341
1704,Sr4Bi3,-0.877197143809524
1705,CrHg(PbO3)2,-1.5007210355000005
1706,CsZnB(PO4)2,-2.660171050289567
1707,Er8In3Co,-0.35037031166666743
1708,K2Te2As,-0.8544315124500003
1709,Cs2ZnSn3Se8,-0.943470150329433
1710,Sc(GaFe)6,-0.32002641538461557
1711,S4I2O15,-1.4140637198809531
1712,Ba3TbIrRuO9,-2.582562048666667
1713,DyYMn2O6,-3.0480839642528754
1714,Zr3P,-0.8622263239583337
1715,Au,0.0
1716,KReO4,-2.353198544666667
1717,EuNb8O14,-2.8435601458695636
1718,K2SrV3O9,-2.617088636677778
1719,Rb2LiScF6,-3.5845828538333335
1720,ZrSiPt,-1.1340502999999995
1721,CeTlAu2,-0.5201095845833335
1722,RbPbI3,-1.2359468200000001
1723,Tl2TeO3,-1.276815873402778
1724,Sm2Mo4O15,-2.504616422936506
1725,V2C,-0.4715274274999999
1726,Ce3Si2Rh3,-0.9066873093749992
1727,Sc(Ni2As)2,-0.5880141292857134
1728,HoAl2Ni,-0.6449247324999998
1729,CeH2,-0.6249720416666668
1730,KYb(PO3)4,-2.734641472574075
1731,NdBN2,-1.5188405056249994
1732,NaPrHg2,-0.3817732378879308
1733,NaSbCl6,-1.4351525689439657
1734,GaIr,-0.39897056875000025
1735,KVOF4,-2.939507611142857
1736,LiYb2Rh,-0.3560422833333332
1737,Cr2H24(IN3)3,-0.5621312661842105
1738,Tb(SiOs)2,-0.725342160000001
1739,NiAsRh,-0.4011407983333335
1740,U6Al43Mo4,-0.19855299264150972
1741,EuIr2,-0.5034514133333339
1742,DyHg3,-0.34881813500000014
1743,URu2Rh,-0.45315921749999966
1744,Yb2CdIn,-0.45799064
1745,CePd2Pt,-0.8946608037499999
1746,Ce2(InSn)3,-0.4867459243750005
1747,NaMgTl2,-0.10053934080459781
1748,AcZn3,-0.25077486812500016
1749,GdIn,-0.4848400799999997
1750,TaMnNbO6,-2.9855463158812277
1751,Sc(AlC)3,-0.3469094971428563
1752,BaZnMoF7,-3.1449722154999997
1753,Gd6Mg23C,-0.08799597166666615
1754,Yb12Ga19Au25,-0.6472869150446426
1755,Na2MgGaF7,-3.2479219457366777
1756,YbSnIr,-0.6711099438888889
1757,AsPO5,-2.0662969090476193
1758,BaGa4,-0.4510503240000002
1759,LuScCu2,-0.2791202062499991
1760,Na2YHC2O7,-2.359412257097701
1761,YPaO4,-4.169194752777777
1762,K4La6OsI14,-1.6016772626799998
1763,Cs4Co3F10,-2.6512002339249494
1764,La3Os,-0.1520251675000006
1765,Cs4U3Mo3O20,-2.766618561057472
1766,Y3Ga2,-0.57375744725
1767,Dy3Co29(Si2B5)2,-0.41625335938405783
1768,ScIr3,-0.6210961787499993
1769,Cs2LiNdI6,-1.6744313839195404
1770,Cr2(SO4)3,-2.0144469452573532
1771,CaNiAsHO5,-2.0617866824999993
1772,NaLiZr(Si2O5)3,-3.2441760666618777
1773,Sb2S4O15,-1.7570768879761895
1774,Y5Pb3,-0.5883287260416665
1775,SrCdB2O5,-2.7343981916666666
1776,OsOF5,-2.001320343214286
1777,Ba2MnMoO6,-2.629658242293104
1778,PrCoC2,-0.24394816874999936
1779,MgH2,-0.29437892166666657
1780,CaH4NClO5,-1.5629871040625005
1781,LiHo2Ru,-0.30308166458333297
1782,U2Te3,-0.8982851905000004
1783,CsSnI3,-1.184051359586207
1784,In2(Ni7B2)3,-0.2628658270689651
1785,Er3Si3Ni,-0.7995622742857142
1786,TiTc2W,-0.400843713333332
1787,Hf3N2,-1.614550724
1788,Ca4P2O9,-3.326352695111112
1789,Sc6Co16Si7,-0.6267696175862056
1790,PdSe,-0.5608000624218743
1791,Ag9P14(OF)28,-2.372659476983123
1792,MgNb2O6,-3.101515286111111
1793,BaLiP,-0.9101322522222226
1794,Dy(ZnP)3,-0.6063756378571432
1795,Nd11Sn10,-0.7597671276190473
1796,GdIn5Rh,-0.42210348428571465
1797,La5Sb3Br,-1.3618916236111107
1798,RbInTe3O8,-1.7154431905769223
1799,MgAs2(XeF8)2,-2.1857952711904765
1800,Ca2Ru2O7,-2.1638333709090913
1801,Sr(BIr)2,-0.6269666830000006
1802,BaCa(GaO2)4,-2.634352076428571
1803,AlPd,-0.9140214899999997
1804,Nb3VSe6,-1.1801718994062498
1805,Tm2MgNi2,-0.40734654166666645
1806,VB(PbO2)4,-2.0265312706547616
1807,SmPaO4,-4.143972548333333
1808,Ce2PPt8,-0.8698898012121209
1809,Sr2FeO4,-2.5126467304761904
1810,TmIn2Pd,-0.6354782214166661
1811,TiS,-1.7198331732291665
1812,Rb6CdO4,-1.258578174090909
1813,Lu4Ge6Rh7,-0.9621087158823523
1814,Li3YN2,-0.9433644386111114
1815,Na3V2(PO4)3,-2.6785977022327585
1816,KRb2TiF6,-3.298298287633333
1817,CsYSeCl2O3,-2.4305725414926815
1818,BH3NF3,-1.9489847869270829
1819,Li7Eu8Si4Cl7O16,-2.97811991186508
1820,Be2CuIr,-0.3997566050000003
1821,Ba(GeRu)2,-0.4704398940000004
1822,Tc3Ru,-0.04632761625000015
1823,TlHgF3,-1.842090225416667
1824,Cu2SnHgS4,-0.5400593753124996
1825,InF3,-2.8346068468749994
1826,Sm2AsSe,-1.851928756835938