,formula_pretty,formation_energy_per_atom
20628,Sm3(CuSn)4,-0.5261682904545456
20629,Ba3(BO3)2,-3.15088012939394
20630,ErP,-1.6087394466666671
20631,Na4Ge2Te5,-0.777669010564263
20632,Ce21Fe8Bi7C12,-0.44070106197916675
20633,Tb3S3N,-2.248355524910714
20634,ZnCo2Ge,-0.1428830987499996
20635,Nd3NiSn7,-0.5905780895454545
20636,CaTcN3,-0.5866407749999993
20637,RbTb(PO3)4,-2.9233072292129623
20638,NpAsSe,-1.1094601753645843
20639,Cs2S5,-0.9779335027124384
20640,ErAlGeO5,-3.193068186875001
20641,HoAg2,-0.3275084077777777
20642,Pr3CBr3,-1.5106048346428556
20643,TaPt2,-0.7469697999999999
20644,Cr,0.0
20645,PaAlRu2,-0.5688510124999997
20646,NbRe,-0.1400892675000005
20647,CsSbS2,-0.973340121045259
20648,LaGe3Ir,-0.7284737479999996
20649,U(GaFe)6,-0.2273079673076928
20650,TbCo2,-0.18265751333333333
20651,Na2NiPO4F,-2.4617474568263082
20652,PmInCu2,-0.30093695437499957
20653,TiBe12,-0.14771482794871815
20654,RbSbO2,-1.864373579375
20655,Na3Al2P2O8F3,-3.077878621045658
20656,Rb2Tb10C4Br19,-1.911328406214286
20657,Ca3Pt2,-0.8541242326666667
20658,LiMg2Ir,-0.35485936333333346
20659,Cs4(BSe)9,-0.7954606427417219
20660,Hf(VH2)2,-0.4052507178571432
20661,Na2Te2O7,-1.6849434621003134
20662,BeSiRh2,-0.8120928187499992
20663,Ag2Ge(S2O7)3,-1.6008292467916672
20664,K3BiTe3,-0.972201634857143
20665,ScGaNi,-0.6076799808333332
20666,Fe2Pb(SeO3)4,-1.4367048315460522
20667,In2Cu3(SeO3)6,-1.3009239066918115
20668,MnV,-0.284082053965518
20669,Na2B8O13,-2.805718095171165
20670,Ba(GaAs)2,-0.6504928339999999
20671,RbVBP2HO9,-2.6190887117222226
20672,K2ZrSi3(HO5)2,-2.9049215756111106
20673,UTe4Br5,-1.11331322025
20674,Pr3Tl5,-0.3812102727083331
20675,TiGeOs,-0.515745360555556
20676,Dy5BiPd2,-0.6949071137500002
20677,Nd(Sb3Ru)4,-0.46030399941176536
20678,Sc5(Co2Si5)2,-0.7022132168421057
20679,KAgO,-1.0377020890555553
20680,Rb5Ta(TlAs2)2,-0.43262545972222216
20681,La(NiP)2,-0.9934678243333337
20682,Be2Nb3,-0.134875928000001
20683,TiZnGa2,-0.37453380458333374
20684,CeSiOs2C,-0.5000570300000007
20685,Hf5Sn4,-0.3980996722222222
20686,Ho3Sb5O12,-2.6709593112500003
20687,Mo4P7O24,-2.4726131692380955
20688,Sr2TiO4,-3.4442137609523806
20689,K2GaSb2,-0.49738015245000006
20690,GdNiO3,-2.4495963279999984
20691,Rb2Sn2O3,-1.7204352542857144
20692,Y2CdGe2,-0.7374239386666666
20693,Ho5Ge4,-0.8469622113888886
20694,Er2MgIn,-0.29678727000000027
20695,KCo2H3(SeO5)2,-1.3907751415381948
20696,Ba2HoRuO6,-2.8574977135000004
20697,ErGaRh,-0.9095145008333331
20698,Tb3Co4Sn13,-0.33775222749999967
20699,RbI3,-1.074112831875
20700,USnAu,-0.23287606333333244
20701,YCuPb,-0.4047946405555554
20702,TeI,-0.27138873875000025
20703,LiIn(IO3)4,-1.1481154912962965
20704,U3CrSb5,-0.3457164816666673
20705,Ba2GeO4,-2.855441410892856
20706,SrFe3(P2O7)2,-2.6086804622727273
20707,CaPb,-0.5208819899999999
20708,CsPr(CO3)2,-2.5398044385431033
20709,Al2PdCl8,-1.6766748899999997
20710,YbCdAu2,-0.6674784399999996
20711,ScMn2,-0.14286598945402318
20712,Hf9Re4Ni,-0.35441146214285724
20713,Ti2IrW,-0.5145138491666668
20714,Ba(MgP)2,-0.9310000473333335
20715,Eu2Mn2O5,-2.6483609839846753
20716,NaTiCuS3,-1.3015251782100095
20717,MgScHg2,-0.38760341124999975
20718,SmIn2Ni9,-0.2116021687500004
20719,LiZnPd2,-0.587634210833333
20720,Ir3Se8,-0.6377107262499997
20721,Rb2NaScF6,-3.5777417831551723
20722,LiCa3As2H,-1.0448873997619046
20723,Rb2LiSn4,-0.2894471979761905
20724,Na2CdPb,-0.15147280577586208
20725,Li3BS3,-1.2534536665773806
20726,K6ZnSe4,-1.2510768456704542
20727,TiInPd2,-0.5717860758333337
20728,Os(SCl6)2,-0.7533259794166668
20729,Nd(Al5Os)2,-0.4617233149999993
20730,KBP2PbO8,-2.6233014310641023
20731,Dy(CuO2)2,-2.0835612192857136
20732,Na4MoO5,-2.0209923391206894
20733,Cd3Pt,-0.1853631524999999
20734,K5YO4,-1.986656936666666
20735,Na3NbAs2O9,-2.2247518949770124
20736,DyCuSe2,-1.4474084011718746
20737,Ce3Ni13B2,-0.42321157907407386
20738,Ba(AlCl4)2,-2.2955719204545457
20739,PrInPt,-0.9359358427777775
20740,Nd2TiO5,-3.784178244166667
20741,Mg(BC)2,-0.14715701116666652
20742,HoErIn2,-0.43786094749999993
20743,Tb2FeCo3,-0.16352208916666675
20744,SrTh(PS4)2,-1.3932369884027782
20745,Er3Al3Cr2O12,-3.448679456875
20746,Ga7Pt3,-0.5381636082499994
20747,Na2Be(GeO3)2,-2.3325534713427385
20748,Tm2Be2SiO7,-3.5988939581944446
20749,TlW3Br7,-0.9064124342803023
20750,LiAsPd2,-0.5169049570833328
20751,Zr2CuS4,-1.595996368214286
20752,La4C2Br5,-1.7126873406818184
20753,PaC,-0.4428374349999995
20754,SbOsS,-0.4183422402083323
20755,LiF,-3.165944597916666
20756,PuZn2,-0.1995497500000004
20757,CsGa7,-0.1079170488038792
20758,DySiRu,-0.8075892049999993
20759,Li2GePbS4,-1.0623508217708335
20760,Sr4Tl2CO9,-2.383300497395834
20761,MnTe2,-0.40452535431034536
20762,Sr2P2O7,-3.237064956590908
20763,Gd(Ni2B)6,-0.3929266810526301
20764,Rb2Be2Si2O7,-2.974368265
20765,ErRu2,-0.3625981358333341
20766,Rb2Cr2As2O9,-2.1007541445000006
20767,SrTl,-0.43046963500000013
20768,RbDy(SO4)2,-2.5549858901041667
20769,LuBO3,-3.5692989028333337
20770,YbInNi4,-0.34605051499999995
20771,NbGaTc2,-0.21352328187500014
20772,RbUO3,-3.3045614105000007
20773,PrInPt4,-0.7819837191666661
20774,SrAu,-0.7793926625833336
20775,SmYMg2,-0.10655296541666681
20776,Zn11(B4Rh9)2,-0.42570761806306306
20777,AcGaO3,-3.0632526170000007
20778,UCu2(PO5)2,-2.486240376444444
20779,Ti2ReB2,-0.8316237200000003
20780,Y3Ga7Cu4,-0.4813101673214284
20781,LaNiO3,-2.4717047200000004
20782,PrBi2ClO4,-2.390807440625
20783,ZrGaCo,-0.5535363541666669
20784,Sm7Rh3,-0.5368450930000002
20785,PuO2,-3.649765123333335
20786,Cs2TeCl6,-1.72118263954023
20787,TlV2SbO8,-2.0746904906944437
20788,TmCuAs2,-0.788861629166667
20789,Cs3(SeO4)2,-1.5984149060369695
20790,Rb2Sb2OF10,-2.8344969830000006
20791,ErNiB4,-0.5773542002777768
20792,Nb3Rh,-0.2547317625000005
20793,Cs2RbBiF6,-2.9140682088362064
20794,Sr2LiOsO6,-2.4431203591666666
20795,Dy(SiPt)2,-1.086035597
20796,AlBr3,-1.51806051875
20797,KCuP2Se5,-0.6158387851539354
20798,YbHg3,-0.4526337737499999
20799,AlFe3C,-0.16057992400000104
20800,RbNdS2,-2.0671914134375005
20801,Mo2CN,-0.35515912624999935
20802,Ba(LuTe2)2,-1.7380032225
20803,Pt,0.0
20804,MgSO4,-2.4073644296874996
20805,TaSnRu2,-0.26232829375000044
20806,FeAgBr4,-0.815789113194444
20807,Ce3SnN,-1.0493685629999987
20808,SiAg6HgSe6,-0.3831082245758926
20809,Sm(NiSn)2,-0.5187673289999999
20810,RbWCl6,-1.6144197753124994
20811,Pr2WC2,-0.16263789849999882
20812,BaYb2CuO5,-2.6169472586111118
20813,TiNb3O6,-2.903543185833334
20814,BaZnSO,-2.0780484457812505
20815,Ta4Ni2C,-0.42865087714285516
20816,K2B4H8O11,-2.061282260206666
20817,Rb7Th6F32,-3.998235810722223
20818,YInNi,-0.5032699933333333
20819,FeCu6GeS8,-0.5558889368749993
20820,ZrSbRh,-1.0567993833333336
20821,Ho5Pt4,-1.1832692619444443
20822,LuGaNi,-0.669280103333333
20823,ErAgHg2,-0.320376696666667
20824,In2HgTe4,-0.5361674007142854
20825,DyTc2,-0.18246333333333334
20826,KZrS2,-1.7423333523125004
20827,ZrInAu,-0.46428932333333367
20828,NdInRh,-0.6992539877777778
20829,Na3Sc2(BO3)3,-3.019436241891481
20830,CsVCuF6,-2.756795225325671
20831,TmHg,-0.4819333408333333
20832,YbAlCu,-0.34046754111111155
20833,Pr2SbO2,-2.882041178
20834,Tl3SbSe3,-0.564887661004464
20835,Cs2LiMnO4,-1.8849771765158057
20836,NaGa3Se5,-0.9954560751550522
20837,Pr2MoC2,-0.15072724699999895
20838,Zn3Ir,-0.23027218000000005
20839,Ni3H2Se3O10,-1.2905796826128477
20840,YbGa2Ag,-0.4856157754166661
20841,Pa3Sb4,-0.6315327092857146
20842,BaCaP2(HO4)2,-2.8061995108333333
20843,GdCO4,-2.512931524999999
20844,TaPO5,-3.1093763794047624
20845,SrCrF6,-3.2315526214583334
20846,Na3B6PO13,-2.7742746874125443
20847,LaNiSb2,-0.8689537312499995
20848,CsBeH3,-0.20821207258620725
20849,Ba2Ti6O13,-3.489348069285715
20850,CoSb3,-0.3317351850000003
20851,CsZnCoF6,-2.5246988686590046
20852,Sm2Re2Si2C,-0.5726332671428561
20853,Na4Zr2TiMnSi4(O8F)2,-3.1887920540823758
20854,BaCO3,-2.683620472
20855,PrNiAs,-1.0143253283333327
20856,BaGaSnH,-0.5420091868750001
20857,Bi4RuI2,-0.322097907142857
20858,NaCaAs,-0.856931247183908
20859,Pm2PtAu,-0.92515295875
20860,Dy(Ni2B)6,-0.3927767936842104
20861,CsCu2F6,-2.127775121436782
20862,Na2Sr3As4,-0.8613212428448276
20863,Ce3In3Ru2,-0.4686277306249993
20864,NaPmTe2,-1.2970734185129311
20865,V3Ru,-0.27934434125000074
20866,Ce(FeSb3)4,-0.3464523379411772
20867,CaCd6,-0.1879558407142857
20868,Yb4MgPd,-0.38145727708333305
20869,HfH6O3F4,-2.302775264642858
20870,CsLaZr6FeCl18,-2.2278209715900386
20871,BaZn2,-0.19514573000000013
20872,Eu3(AlAs2)2,-0.9568643388888884
20873,BeCo2Si,-0.5797351862500006
20874,TmN,-2.0020312308333335
20875,K11LiMn4O16,-1.839470819626797
20876,Tb2MoO6,-3.184333716944445
20877,RbBaSc(SiO3)3,-3.3441703843333346
20878,Ba2TeP2O9,-2.8548009904761917
20879,YbSnPt,-0.9878833361111106
20880,Ca2InPt2,-0.883302922
20881,Cs2SeO4,-1.8077344897436884
20882,YbAl7Cu5,-0.30711048307692307
20883,TlSn2Br5,-1.1421664488541667
20884,CsGeB3O7,-2.64729723753592
20885,Sr2CoTeO6,-2.3351185603333326
20886,RbTaN2,-1.0876173012500008
20887,In2(Se2O5)3,-1.391877331263587
20888,KBiO2,-1.7274063657499994
20889,Tb4CdIr,-0.5184474491666661
20890,Cs10P4PdSe16,-1.0767150604885056
20891,Pr(SiPd)2,-0.9076428130000004
20892,LuAu2,-0.891509413333333
20893,KHfCuS3,-1.524333063729167
20894,Li2ZnGe,-0.3396181366666666
20895,Sr2Ge2Se5,-1.326034678894676
20896,TePt,-0.556262845
20897,LuGe2Os,-0.5231557864583323
20898,Sn(PO3)2,-2.4317777218518524
20899,CoAs4F18,-2.4380854606521747
20900,LiCoN,-0.38116709111111174
20901,Sc2ZnPt,-0.8355180725000002
20902,Gd2MgNi2,-0.3584933770000006
20903,CeI3,-1.68291953125
20904,Mg,0.0
20905,NaTl2InF6,-2.587636489821839
20906,Tb2Hf2(MoO4)7,-2.5880598326923083
20907,ZnPt3,-0.3126890824999995
20908,MgWF6,-3.207011556875
20909,NdI2,-1.5473327333333338
20910,Ca2Si5Pt3,-0.7889042345
20911,Rb2ZnH12(SeO7)2,-1.4281059048286284
20912,Ca3Au4,-0.7886757228571426
20913,Nd9Al5Se21,-1.812071829977679
20914,LuMgHg2,-0.41974166999999984
20915,LuIO,-3.0935924099999994
20916,Sr2CaUO6,-3.5757681903333327
20917,Ca10P6SeO24,-3.2834504049352136
20918,La4SiI5,-1.5157901975
20919,Ba5SrNd2Fe4O15,-2.707967288024691
20920,CaCeV2O8,-3.0289716454166666
20921,CsHoO2,-2.977093518232758
20922,Rb3CuO2,-1.2378377595833332
20923,Ti2TcRu,-0.648222587916667
20924,Zr2InCo2,-0.3438642900000005
20925,Rb3V2Br9,-1.642585645
20926,RbUAuSe3,-1.2343432265885415
20927,RbV2SeO7,-2.128239048394886
20928,K3V2(S2O9)2,-2.1555107095925927
20929,NdSnAu2,-0.69367534625
20930,LaBPt2,-0.9237215960416663
20931,Ho7FeI12,-1.4009394849999999
20932,In2O3,-1.997063393
20933,Ag3AuSe2,-0.24399939786458327
20934,Na3Ca2BiO6,-2.283201011637931
20935,ErAu2,-0.8802681099999999
20936,Pm2SiAu,-0.6297938687499993
20937,SmPdPb,-0.7300846005555555
20938,GeAsSe,-0.3320081874479162
20939,Rb2Gd4Cu4S9,-1.653990300690789
20940,K4IrO4,-1.5355774924444445
20941,BaBPF10,-3.385659918269231
20942,SmSi2Rh3,-1.017577810833334
20943,CsTaS3,-1.4397206254612072
20944,Ba8Nb7S24,-1.7366921201282055
20945,Na3BN2,-0.6275795181369729
20946,K6Na14Tl18Cd,-0.12125911153138848
20947,TlP(HO2)2,-1.9262120348958334
20948,K6Nb4S25,-1.1098225768178565
20949,CsHo(NbBr3)6,-1.5144930739588864
20950,YFe5,-0.042560901111110404
20951,NaNd4I7N2,-1.7168235818965516
20952,Mg3(TiAl9)2,-0.16058912028985556
20953,ScSi,-0.8011338575
20954,RbV3(SeO6)2,-1.9839940940104175
20955,K9InSe7,-1.244340179170956
20956,Ni2Mo4C,-0.09727467571428454
20957,Er2Au5F21,-2.2299222549107145
20958,Eu2SiO5,-3.3306764334375014
20959,UNi2B2C,-0.38004014472222164
20960,Rb3In(IO3)6,-1.2399968108035726
20961,Ti6Al16Pt7,-0.8079163986206903
20962,NaNi2H3(SO5)2,-1.7043634887667625
20963,HfSiTe,-0.8367383583333338
20964,AlRe2,-0.26289866
20965,Sr2CdIn,-0.3917934158333334
20966,Cs2TlInCl6,-1.8533434339195396
20967,CsErSiS4,-1.717546006847291
20968,Rb2TbGa(SiO3)4,-3.141847624750001
20969,Hg(IO3)2,-0.8051307922222222
20970,U2TlSe6,-1.2306759763773145
20971,AgPtF6,-1.611163685208334
20972,Cs4FeO3,-1.3772657352155173
20973,SrMgSi2,-0.31517241354166714
20974,Ta7S12,-1.383979259868421
20975,Na5CrP2(O4F)2,-2.6934065424680713
20976,Ba6Na2Mn2Nb2O17,-2.739705773067777
20977,Ag2GeSe3,-0.42753401839409716
20978,Lu2Co17,-0.11342826473684167
20979,Re3Os,-0.05907678624999946
20980,Ta4CrTe4,-0.538095670833335
20981,RbSr(BH4)3,-0.48143992465686253
20982,BaAs2Pd,-0.8220338200000006
20983,ThCu5Sn,-0.23285219678571373
20984,UB2Ru3,-0.46076393555555484
20985,Sr(ZnSn)2,-0.3591081203333335
20986,Ti3Ir,-0.5762841100000013
20987,V2OsRu,-0.24154415000000107
20988,Na15Cr7N19,-0.512218315201849
20989,Eu3IrO7,-2.608094080909091
20990,CaCdO2,-2.3535980549999995
20991,Np2SO9,-2.7117004958854167
20992,Pu3Sn,-0.27166241375000233
20993,Li7La3Hf2O12,-3.197150376388889
20994,Ho3Er3MnBi2,-0.41151887977011525
20995,SrCeN2,-1.3719114479166672
20996,FeSiRu2,-0.3662709875000001
20997,Na2LiAu3,-0.4348987827394633
20998,Dy2SbO2,-3.039796796000001
20999,PuGaNi,-0.4084261747222213
21000,Gd2InSbO7,-2.915491973181818
21001,Rb2VF6,-3.0765198366666673
21002,PmNdGa2,-0.5590612056249995
21003,NaMgSO4F,-2.6017296027720906
21004,LiInGe,-0.2270812327777776
21005,Ba17Er16Zn8Pt4O57,-3.003912500931372
21006,Sr8In4Cu3N5,-0.5960488734166673
21007,Tb3Ge13Os4,-0.34124448600000007
21008,CsPPbO4,-2.429677640180624
21009,CoBi2SO7,-1.7503176246022734
21010,Zr(GaFe)6,-0.30723060653846146
21011,KAlSb4,-0.34727032300000005
21012,Hf3(Cu2Ge)2,-0.43484780444444404
21013,Ti3GeC2,-0.8407164450000005
21014,TmAlNi,-0.6269793988888881
21015,CdPd3,-0.26858443249999997
21016,SiMoP3O11,-2.68641756265625
21017,InNi2SbO6,-1.680865533
21018,La5Ru2,-0.2727985628571424
21019,Tm12In2Fe3,-0.18956821941176408
21020,Rb2LiTaS4,-1.5155585741666666
21021,Hf3P3Pd4,-0.9794908939999999
21022,KLiZnP2O7,-2.6151231637916665
21023,AlTlCl4,-1.8379474005555558
21024,Na3WN3,-0.6126749374507392
21025,SrMg2Pd,-0.4622418791666667
21026,Li7PN4,-0.8554871957638888
21027,K3Mn4O8,-1.959798722548275
21028,Ho(FeSi)2,-0.6505387179999985
21029,K2TaAgS4,-1.284662478145834
21030,HfVF6,-3.777899545625
21031,Sr4B14O25,-3.045928864418605
21032,Np(SiRu)2,-0.5834623577499997
21033,Er7C2I12N,-1.5333289363636369
21034,Ho3ReO8,-3.325768194791666
21035,CaLaHg2,-0.5717234737500001
21036,Hf3Pb,-0.017701849999999908
21037,TiAl,-0.40694453166666733
21038,BaCu2SnSe4,-0.9756104342968746
21039,LiDyO2,-3.291610957083333
21040,La2Ge5Rh3,-0.8451044459999999
21041,K2CoO2,-1.4372935767000008
21042,ZrZnPd2,-0.6439206000000004
21043,Tb(Ni2As)2,-0.629362654285714
21044,Ge3Rh2Se3,-0.6798486583789058
21045,Ce2(Si2Pd7)3,-0.7159886027586199
21046,Ti3Al,-0.27915687249999976
21047,Li3B7O12,-2.817122843371212
21048,Rb4Zr3Te16,-1.0108146632608694
21049,YAgSb2,-0.7171113070833339
21050,Li2BeF4,-3.3661270964285714
21051,SrGaGeH,-0.5208152185416668
21052,La(Cd10Ni)2,-0.09870205999999988
21053,KZn(BO2)3,-2.6348289573181813
21054,LiSbRh2,-0.5880916808333332
21055,Mg149Fe,-0.014402139266666723
21056,Tb(ClO4)3,-0.9721415334375001
21057,Cs2TiP4O13,-2.826346150876437
21058,RbEu2I5,-1.8317214212500006
21059,Cs3TlF6,-2.679483796212643
21060,AlIr,-0.9589795700000003
21061,Rb6AlSb3,-0.4478853795000003
21062,CeNiSn,-0.5914757766666661
21063,HoNi,-0.4682493775000003
21064,Cs2Na2IrO4,-1.514319851551724
21065,Na2SbSO4F3,-2.4073281946571323
21066,NaNd(Si3O7)2,-3.2844602279114423
21067,Ho(NiP)2,-1.0106138533333335
21068,UCrO4,-3.1723925183333344
21069,Sc6FeSb2,-0.6234422666666661
21070,K2UCr(IO6)2,-1.9451057868611106
21071,LiTi2(PO4)3,-3.0199401926388894
21072,HoCrB4,-0.6730387098611104
21073,Na3OsO5,-1.7891759269987229
21074,Zn2P2O7,-2.4332004529924234
21075,LaPd,-0.83167042
21076,Yb(PRu)2,-1.014558999333333
21077,MgSc2Cd,-0.16889628999999973
21078,Y6FeBi2,-0.4431290900000001
21079,Yb13Zn58,-0.2861041780281691
21080,Ba2DyCl7,-2.871579293
21081,LaCN2Cl,-1.512333380999999
21082,Si3Ag3(SnP3)2,-0.1283513192857139
21083,RbUSO6F,-2.8602931765625006
21084,Na2Te,-1.0695891110344833
21085,Ho5Ru2,-0.37422802499999974
21086,Ca3Al2(GeO4)3,-2.9349080867500006
21087,Cs2TlInH6,-0.08996494691954027
21088,Pu2InPd2,-0.4815087509999998
21089,KAuS,-0.9289499453750002
21090,Yb2Ni12As7,-0.5162869354761894
21091,YUO4,-3.903173539444444
21092,Nd2Co3Ge5,-0.5825888579999997
21093,Na4Sn3F10,-2.777771066541583
21094,KAsSe2,-0.8548855525468744
21095,ReOs3,-0.08533062875000041
21096,PmAlCu2,-0.29286179937500023
21097,LaAl3,-0.44125478749999925
21098,Al2CdTe4,-0.7055929385714285
21099,SrZr4(AsO4)6,-2.5767566639047623
21100,Sr4As3,-1.1285100511309527
21101,Ba(ZnSb)2,-0.6088559095000001
21102,Ba3FeRu2O9,-2.2426972406666663
21103,NaCa3RuO6,-2.5710747796865205
21104,Sm3CuSnS7,-1.725733699322917
21105,ErTl(MoO4)2,-2.379506440486112
21106,AlCuSnS4,-0.9106520182142859
21107,Rb3InF6,-2.95684515575
21108,Sr7Nb6O21,-3.2689961853431373
21109,Rb3BP2,-0.3745774963888889
21110,NaB3O5,-2.7873750466538953
21111,Ce5Si3,-0.5297485712499999
21112,LuBRh3,-0.832442331833333
21113,In7Te10,-0.5611020526470591
21114,La3CuSnS7,-1.8364448372395834
21115,LiMn(PO3)4,-2.5754690623387617
21116,Gd2Al4CoGe2,-0.6497079105555557
21117,Cs3GaO3,-1.7918229108990151
21118,Ca2InN,-0.7723519875000004
21119,Sm2ReO5,-3.2051114143750006
21120,Yb(MgBi)2,-0.524940634
21121,CaFe2P2O9,-2.580907009940477
21122,Mn3Sb2(IO)4,-1.4506446595225466
21123,Ba2H8PtO8,-1.6780080215789475
21124,La2Be2GeO7,-3.2724024612499996
21125,AlSb2(TeCl2)2,-1.2300689649999998
21126,Tc3Pd,-0.07819917750000016
21127,MnCuPd2,-0.2230072319827583
21128,AlPPd4,-0.6622566194444448
21129,Li3NdAs2,-0.9939837316666669
21130,BeRh,-0.6078159225000004
21131,LiGaS2,-1.2773493555208333
21132,Pr2Ni2I,-0.7594631249999999
21133,RbNaTiO3,-2.775259101230843
21134,LaSiRu,-0.7791817166666656
21135,LuSbPt,-1.2683736233333331
21136,TlBiP2S7,-0.643202925170455
21137,TiNb3(PO4)6,-2.906902870686275
21138,CeCd2,-0.2552817116666664
21139,CaPdF4,-2.8363586683333337
21140,CeSnIr,-0.8532518500000003
21141,Ba(HoS2)2,-2.425044533571428
21142,AlTc2,-0.4131885799999999
21143,HoSeClO3,-2.492416284973958
21144,CsBrO3,-1.0614911000862066
21145,CeMgPt,-0.8411242894444442
21146,Al2(Ni7B2)3,-0.3477999060344824
21147,SmHCO4,-2.550023565714286
21148,AcF3,-4.4154038149999995
21149,Ca(ClO3)2,-1.196813676666667
21150,UGa5Co,-0.32550454607142854
21151,Rb2As3,-0.41358877000000016
21152,LuPd,-0.9743076449999997
21153,SrCaSi,-0.4247594947222222
21154,Zn3Fe2(SeO3)6,-1.4586616682435354
21155,Al(FeB)2,-0.400858757666667
21156,Tm6ReO12,-3.6835766128947367
21157,SmBi2ClO4,-2.431804591875001
21158,NaAlSiO4,-3.1503878061145323
21159,LiTlPHO3,-1.9859161900000006
21160,LaBeCu12,-0.10654900678571469
21161,HfReSi,-0.76663340611111
21162,Pr(AlZn)2,-0.4428607449999998
21163,Y5Ir2,-0.6425813254761904
21164,YMn12,-0.0014067339876231261
21165,GaPPd5,-0.5667634686904758
21166,Lu5Re2C7,-0.43692461857142867
21167,CeAlRu,-0.6041165595833332
21168,NaB3SeO7,-2.402413126574622
21169,Tc2Te5,-0.5727795860714283
21170,LaHgAu2,-0.6235889925000002
21171,ZrTl2PbSe4,-1.0547561288802076
21172,Cs2PH5O6,-1.9074744519068147
21173,K2P2WO9,-2.5549950385833333
21174,SrP11H28N9,-0.383474529455782
21175,Pr6OsI10,-1.4615291432352941
21176,La4Al2O9,-3.7910376603333344
21177,Eu3Pd2,-0.6150188023333328
21178,Th4C3,-0.267103435714285
21179,Li7PSe6,-1.161858447909226
21180,DyZnRh2,-0.6571165799999994
21181,Ge3Pb5O11,-1.842273302631579
21182,Pb3(NO4)2,-1.2059066223076917
21183,PrErIn2,-0.45464666624999994
21184,DyCu2,-0.26980059333333334
21185,LaTlGeSe4,-1.2310179262797618
21186,GdBrO,-3.312321567500001
21187,SmRhO3,-2.5288903019999998
21188,V5Te4,-0.49330469777777824
21189,GdP5,-0.5354260186111107
21190,Tb5Ge4,-0.8495525808333334
21191,Li2Ni3TeO8,-1.5295417290476192
21192,K2B2S7,-0.9768511369280307
21193,GaAgSnSe4,-0.6767720855059528
21194,LuAlAg2,-0.32834214083333313
21195,Dy2MgSe4,-1.9611371763392853
21196,Er(FeSi)2,-0.6512024820000007
21197,SrAgP,-0.7524250172222224
21198,EuCu,-0.13417159874999918
21199,HfTc,-0.4841757950000005
21200,KBaCr2(PO4)3,-2.802588442394737
21201,Mg149Tc,-0.018674599600000005
21202,Sc4Si2Pt7,-1.1798253442307685
21203,Ca2Se3O8,-2.0726834313100966
21204,NaInAs2O7,-1.8961616130956107
21205,ThSi3Os,-0.6334156429999993
21206,GdTl3,-0.2534089425000001
21207,CaGd2(GeO3)4,-2.8030612957894747
21208,Ce(PO3)3,-2.9722843934615386
21209,LaBi3,-0.55662920375
21210,LiCaBi,-0.799304643611111
21211,Zn13Rh,-0.13004559357142856