,formula_pretty,formation_energy_per_atom
29319,Cs2GeF6,-3.056734872873563
29320,MgB9N,-0.42295455522727177
29321,Sm2C,-0.16280852333333348
29322,KNbWO6,-2.5998850836666683
29323,Yb2ReC2,-0.09735314999999929
29324,YInAu,-0.7542575366666671
29325,Gd6CoCl10,-2.3072384161764705
29326,Ge3Pt2,-0.41246808299999954
29327,Ce(BOs)2,-0.47978232166666573
29328,TiFe2,-0.28339347611111165
29329,Nd(NiGe)2,-0.6917258639999992
29330,Cs2HfO3,-2.827487701810345
29331,MgSeO3,-2.03077392946875
29332,Tm3Os,-0.31233723624999943
29333,LuNi2,-0.5180205966666662
29334,KTbGeS4,-1.5401577400714288
29335,Tl4GeS4,-0.6374771795370372
29336,Er2Ga3Cu,-0.5922963104166659
29337,Rb2MoS4,-1.2418890996428575
29338,PrNi4B,-0.40217247069444423
29339,PrCoO3,-2.5053522169999995
29340,TlBO2,-2.1960636793749995
29341,Be3Al2(SiO3)6,-3.267594607931035
29342,Lu3Sb4Au3,-0.7996127824999995
29343,Ca2CdIn,-0.42342081500000006
29344,LiMn(CO3)2,-1.985073454876438
29345,Ba3NaOs2O9,-2.334663356436782
29346,Ca2NiOsO6,-2.2582496759999993
29347,Lu4B3C4,-0.5282231206818166
29348,Lu5Ir3,-0.8849423575000008
29349,CuCl2,-0.91673365
29350,Sr14MnSb11,-1.0731344791832451
29351,Gd2(Ga3Ir)3,-0.6770133662500005
29352,PrAl5Ni2,-0.5907846856250005
29353,Ba2CaCo2CuF14,-3.03098352625
29354,Y2Mo2O7,-2.9326538612121222
29355,Ba2CuO3,-2.2859098991666666
29356,K2WS4,-1.2497548444285715
29357,CeIn5Rh,-0.42697840499999984
29358,KCuCO3F,-1.894408969357143
29359,Rb2BaNb2Se11,-1.2175602428613277
29360,ThSe2O7,-2.152323822968749
29361,V2HgO6,-1.9398565450000003
29362,CaGeN2,-0.8127091287499999
29363,Na2CdH4(SeO5)2,-1.4731060283047868
29364,Ag2P2PdO7,-1.7878587966666668
29365,HoMgAg2,-0.31022305833333297
29366,TiH12C2(NF)6,-1.3188976380864204
29367,Zn4P6SN12,-0.735057612744566
29368,LiU4P3O20,-3.2371334549404764
29369,Li4TiO4,-2.7075447612962957
29370,NaB15,-0.05005918494073214
29371,Ce5(In2Pt)2,-0.6790553827272728
29372,U2Si4Mo3,-0.40287881222222194
29373,K3Sm(PO4)2,-2.9780627679047624
29374,Tl2PtCl6,-1.1888422140740742
29375,NaMoP2O7,-2.5653444571107618
29376,HfSiRu2,-0.7999733450000015
29377,Ga2BiSe4,-0.8113380220535709
29378,Ta2Tl3Cu3S8,-0.9127014921875007
29379,SrSnHg,-0.5517879022222223
29380,NaIrO3,-1.4757120353103446
29381,La5Pb3S,-1.0557940759027775
29382,LiCa2Cd,-0.19718648083333323
29383,DyCdPd2,-0.7366060049999996
29384,RbNaCaTh(Si2O5)4,-3.3099570740328668
29385,SrLaTl(AsO4)2,-2.514512786538461
29386,Cs2In2Sb3,-0.4364788967302954
29387,LiYbSb,-0.9995238927777782
29388,Ba6Dy2Al4O15,-3.4147007581481486
29389,CaSeO3,-2.30692703596875
29390,Pr4Se3N2,-1.9446622435590268
29391,LiSbS,-0.9537415471527778
29392,U3NbSb5,-0.4207873305555552
29393,TbNiBC,-0.5061221947916668
29394,La5Cu4As4(ClO2)2,-2.1527204097368418
29395,Ho2(NiB2)3,-0.5781022604545453
29396,NdEuCuS3,-1.8966030098958342
29397,Ba3Sb4O,-1.3631549799999996
29398,NbCu3S4,-0.8482220390625006
29399,CsMgCl3,-2.322267099586207
29400,TmFe5P3,-0.7511488415740738
29401,Ca2GaCu2,-0.2975049955000003