,formula_pretty,formation_energy_per_atom
3623,Tb3FeB7,-0.5683006276515153
3624,ScVRu2,-0.4583206937500002
3625,HgPSe3,-0.40395817007291657
3626,Ce3Bi4Pd3,-0.792716368
3627,Cr(NO3)5,-0.8311678382539672
3628,Ba2NdNbO6,-3.3743618170000005
3629,Na7Ga13,-0.1760205235014368
3630,LiYb(WO4)2,-2.42104121611111
3631,Li4V3Cr3(SnO8)2,-2.38737555297619
3632,YGa3,-0.5377452072916666
3633,Cs(PRu)2,-0.6267356529195396
3634,Na3AuO2,-1.3256148561925283
3635,KNaNdTaO5,-3.1147141705057475
3636,Rb2Al2B2O7,-2.9794121660256403
3637,HfTc2Mo,-0.29447502000000014
3638,Zr4C3N,-1.1024330343750002
3639,K2VCo6Cu2As5O24,-1.6742439967750002
3640,Er(Al5Re)2,-0.3493455298717943
3641,TaSi2,-0.4300805544444444
3642,Sr2TaAlO6,-3.486863334333333
3643,Na3SO4F,-2.381709321697797
3644,GaAg(PSe3)2,-0.5053137558645829
3645,AgAuO2,-0.4721402929166656
3646,CdS2O7,-1.7754595196249994
3647,KEu(GeO3)2,-2.4492532818
3648,Ca11GaSb9,-1.0575689848809517
3649,SrCN2,-1.0384971091666673
3650,Cs4Mn3O6,-1.7786047496551731
3651,Cu2B3Ir4,-0.19558806638888784
3652,Er5Zr3(Ni4As3)4,-0.8225579216666669
3653,YFeCo,-0.14425608055555492
3654,Zr2Be17,-0.23725090289473663
3655,K2CeH2S3O13,-2.2375764371607154
3656,LiCoAs,-0.502881727777778
3657,Co2(GeS)3,-0.6094366877343749
3658,GdAl,-0.41359409874999997
3659,CdCo3N,-0.043115965999999874
3660,NO3,-0.5640297945312502
3661,Er4Ga16Co3,-0.49826989499999963
3662,Sr5Cd2Sb5F,-1.2899732166025637
3663,ZrSiOs,-0.808140226666667
3664,Ca3ReN4,-1.0016959884027767
3665,GdB(SO4)3,-2.3254023447671575
3666,Hf6Be15Pd8,-0.4814429281034483
3667,Na3Si3SnO9F,-2.854012269832656
3668,BeH8SO8,-1.6388851068402772
3669,Sr9YbV7O28,-3.0027709554444444
3670,Cr2Ir2C,-0.1739736640000004
3671,Li5SiN3,-0.8912552144907401
3672,MnAlFe2,-0.18634536198275864
3673,EuP3,-0.6747286725000006
3674,LaAgGe,-0.6460695505555556
3675,LiCaSb,-1.0060458652777775
3676,SmNiGe,-0.7370186483333327
3677,ZrUC2,-0.49157968000000096
3678,Lu3C4,-0.38089999014285597
3679,K5Tl3O,-0.4971117533333332
3680,InAsPt5,-0.3332421650000005
3681,Ce2TeO2,-3.2101327899999994
3682,NbTe2,-0.7424425533333334
3683,TaB2,-0.6492166861111102
3684,BaSnS2,-1.5439220990625002
3685,TiAl2,-0.4292770236111115
3686,RbCdF3,-2.705741463
3687,Er(MnSn)6,-0.13671483904509346
3688,PrZnRh,-0.6302677045833326
3689,DyAsO4,-2.8497321691666664
3690,Er4Ge6Ir7,-0.8900742558823521
3691,Cs3Nd(MoO4)3,-2.418062202436479
3692,DyB4Rh,-0.6116106827777786
3693,DySiPt,-1.1921786374999996
3694,Sc(Al2Fe)4,-0.42552828961538364
3695,La5P12Ru19,-0.8304729249999983
3696,NdBr3,-2.3103355893750006
3697,Dy2CdIn,-0.40538401000000013
3698,Sm6Ni20P13,-0.892557476239316
3699,La3Tm2(GaO4)3,-3.400760811291667
3700,LiZnN,-0.3974951061111109
3701,ZnSnAs2,-0.1922168287499999
3702,GaH3NF3,-1.771540200625
3703,Sr4Co(IrO4)3,-2.0589373720833337
3704,EuMg(BO2)5,-2.9942625840196078
3705,SmHoHg2,-0.4694196012499998
3706,BaCo2(PO4)2,-2.5681337128205137
3707,TlBi(PS3)2,-0.6420403838750005
3708,K2V3P4H4O19,-2.4012441966979168
3709,Li2PmTl,-0.25788245187500003
3710,Tb3(Al3Os)4,-0.592296051578948
3711,Gd(Co2B)6,-0.34862625552631543
3712,Ba(GeP)2,-0.5037768158333329
3713,KAs2HO6,-1.75399261755
3714,CeAs2Au,-0.7892547387499995
3715,GdPS,-1.7402514525694432
3716,CaNiBN,-0.9658783622916669
3717,LiMg2H7Os,-0.4533665648484851
3718,CaZn5,-0.22792974666666677
3719,NbZnRu2,-0.2579581974999998
3720,IrF3,-1.609916089375
3721,K2Si2O5,-2.9053559556666673
3722,KLiMnPCO7,-2.3449246843831424
3723,FeSiTc2,-0.2857489274999985
3724,ScCoGe,-0.7291551491666665
3725,CuBr,-0.5176189337499997
3726,Tc2As3,-0.28009173200000104
3727,Ba(TaN2)2,-1.2839975810714288
3728,TlMoPO6,-2.151274532407407
3729,SmTl2P2S7,-1.0465476187673612
3730,Na3Eu(CO3)3,-2.262955410915949
3731,Ge7Ir3,-0.2713040615000004
3732,Ca2MnAs2(H2O5)2,-2.099383386733212
3733,Rb3Cu5O4,-1.0830945764583333
3734,Rb3CoO2,-1.195625397916667
3735,MoSe2,-0.9877224348958341
3736,EuIn2Au,-0.5291972512499994
3737,Ba3In(BO3)3,-2.9723539735937505
3738,BaTb2O4,-3.663951709642857
3739,Zr2CS,-1.4631769157812498
3740,Ac3Sn,-0.3112232506249999
3741,ErGeRh2,-0.8707093216666664
3742,ZrGa2Co,-0.5384557542500005
3743,VBO3,-2.726639265833333
3744,Dy2Si3Rh,-0.9352985616666665
3745,Y(CoB)4,-0.4976916764814818
3746,K2Pd(S2O7)3,-1.7596278966583336
3747,Ba(PPd)2,-0.7978344593333333
3748,Ti4Te9I4O,-1.1145500910185195
3749,LuNbO4,-3.5823747441666662
3750,Zr3InF15,-3.758615316710527
3751,NaV2Bi3O10,-2.087130916034482
3752,Ca3CdO4,-2.83587233125
3753,Li3CrO4,-2.180159844375
3754,MnPtF6,-2.199606686616379
3755,Nd3Co29(Si2B5)2,-0.39154994047101394
3756,Tb3Ga5,-0.66275547
3757,Eu(AsPd)2,-0.8138765129999996
3758,LiGaH4,-0.209637901805556
3759,BaGe2,-0.5302578679166666
3760,Be2NiH20N2(O3F4)2,-1.6541954375641024
3761,U8MnS17,-1.6734205523483086
3762,Ca3Ti3Cr2O12,-3.278112299125
3763,Tm2Se3,-2.1506342855729166
3764,Y2Si5Rh3,-0.9744951538333332
3765,Ta2MoOs,-0.3917058837499994
3766,Rb5B19O31,-2.8286432299393947
3767,RbSc(SO4)2,-2.4937947707291657
3768,Na3PSe4,-0.9813599840454383
3769,VMo,-0.10177630499999957
3770,CeVO3,-3.2265696395000005
3771,Sm11In9Ni4,-0.48659877979166605
3772,CdNi(PO3)4,-2.4139015457407407
3773,YSiRu,-0.8267557155555553
3774,Tb4InGe4Rh,-0.8483455540000001
3775,Ni(BW)3,-0.4229203153571421
3776,Sc15(In5Rh2)4,-0.6013731029069763
3777,TmUTe4,-1.1979830644444458
3778,Hf7Cu10,-0.17838137529411777
3779,AlP3(NCl3)3,-1.2182015123437502
3780,Li8Zn2Ge3,-0.3508504197435896
3781,FeSeCl7,-1.0074602352604165
3782,SnAu,-0.1842897524999998
3783,Ho(SiOs)2,-0.7214761580000001
3784,H12PbN3Cl5,-0.8804451779761909
3785,ScZnCu2,-0.2553761687499998
3786,K(PRu)2,-0.6322553899333329
3787,YbCu4Ag,-0.25090038444444457
3788,CaSi,-0.5029676075000005
3789,K2Ti2O5,-3.062335458629631
3790,LaTl,-0.4223500791666668
3791,CsSmSiS4,-1.7338471111330054
3792,ZrF4,-4.002495362500001
3793,KGeBiS4,-0.9107692857857143
3794,Na6S2O9,-2.0947989000329623
3795,Zr2Co4P3,-1.0204983661111113
3796,Sm(Al2Cu)4,-0.31695454653846156
3797,PmDyMg2,-0.09321656437499959
3798,CaGe,-0.6613938774999997
3799,K3Ta2AsS11,-1.1557606037279413
3800,Ba2Li(BO2)5,-3.0323633663425937
3801,RbDy2Ag3Te5,-1.0681590547727269
3802,Au2S,-0.2396917127083332
3803,La2Si2PbSe8,-1.5695304195192306
3804,NaTl2Cd,-0.08203800580459752
3805,Rb5GaO4,-1.6423773769999996
3806,HfSiMo,-0.7075655925
3807,CsYbBr3,-2.345942706086207
3808,Er2BiO2,-2.9870577620000014
3809,Lu5BiPd2,-0.7089002249999998
3810,Y(NO3)3,-1.4532035699358987
3811,Cs2TeH6SeO10,-1.5015072400352907
3812,CdHg4(AsI2)2,-0.413747988181818
3813,MgHAu2F11,-1.860660452
3814,TiMnRh2,-0.5704695178160915
3815,GdLuAg2,-0.31987320083333337
3816,K2NiO2,-1.3091295112000005
3817,Tb2VFeO6,-3.0799965135000007
3818,Na6MgCl8,-2.148044957954023
3819,AcCuO3,-2.4228924235
3820,CaCuGe,-0.4700337249999996
3821,In2(MoO4)3,-1.9915518175735287
3822,U2CuP2(HO)24,-1.820633020880504
3823,TbSF,-3.3219206302083335
3824,Ca3ScCoO6,-3.0254805795454547
3825,ZrZnCu2,-0.22162148000000048
3826,V2Se2O11,-1.575888708979167
3827,NaPr2RuO6,-2.7160329721551717
3828,SrTiO3,-3.552249219
3829,Tl2MoCl6,-1.3763321929629626
3830,ZrIn3,-0.21133414000000084
3831,Sr3U11O36,-3.6642078518000005
3832,Hf5ZnSb3,-0.5609343833333327
3833,Ce3HfSb5,-1.011774022222222
3834,ScCdNi4,-0.3640546474999997
3835,SnBr4,-1.1174338554999999
3836,ErP4HO12,-2.787792607962963
3837,Bi6Cl3O7F,-1.7915931273529413
3838,Te,0.0
3839,RbNpCuS3,-1.4230269476041677
3840,CsPbCl3,-1.8893130345862068
3841,MgCdAg2,-0.16558596083333343
3842,Cs2LiYBr6,-2.153922829086207
3843,Pr(HO)3,-2.201900019285714
3844,SbPdSe,-0.6384180474479161
3845,Tb2Re3Si5,-0.5597409562499991
3846,SmZn12,-0.19344347730769257
3847,Dy6Mn(SiS7)2,-1.8914894413774361
3848,Fe13Mo9,-0.004361842272726593
3849,CsLuP2O7,-3.171754125417972
3850,SmGa6,-0.33129462071428556
3851,CrCdO4,-1.637490588333333
3852,Tb7PtI12,-1.527013821
3853,CuBS2,-0.592683841354166
3854,Na3(VSe2)5,-1.08390495461626
3855,Mn2GaCo4Ge,-0.2622225710452586
3856,K2PrI5,-1.7145696904375
3857,TiNb3Cl7O2,-2.110443978717949
3858,Er2ZnRu,-0.40202284125
3859,Ce3(CuGe)4,-0.5510612377272724
3860,BaSi3Pd,-0.4362009720000003
3861,CsYP2O7,-3.1428021503422148
3862,Nd2CuTe2(SO7)2,-2.268639160297619
3863,Rb4Zr3Se14,-1.3462942615625006
3864,CdB2F8,-2.9980013003030295
3865,EuTa2O6,-3.474405313611111
3866,NaNbS2,-1.4589752419504318
3867,CsNaEuNb5O15,-3.0185340441079456
3868,TiAlCu2,-0.3049749333333329
3869,SrPS3,-1.4288475258749997
3870,DyNbRu2,-0.2938939300000012
3871,La6Mg(SiS7)2,-2.0863069101630445
3872,K3InF6,-2.9979861849000002
3873,BaH6F8,-2.3305350173333337
3874,La3Ge3Br2,-1.3852111706249994
3875,Tm5SbPd2,-0.7890481947916665
3876,ZnGaCo2,-0.17733022937500031
3877,LiNi2Ge,-0.3625631970833343
3878,Cs2U(Cl2O)2,-2.700804070651341
3879,Ce(Re2Si)2,-0.4470742992857148
3880,Ho4InRh,-0.5593828270833333
3881,PrSe,-2.072376148671875
3882,Rb2In2Sb3,-0.4239880208928568
3883,DyGaPt,-1.1009713058333332
3884,YGaIr,-0.8737551980555551
3885,Cs2ZrMn(MoO4)4,-2.3377364618247127
3886,Sm(BRu)4,-0.4728627526851849
3887,Lu2Sn2O7,-3.025837942272727
3888,HCNO,-0.9295800204166665
3889,Na3H5(SeO4)4,-1.3739118755010777
3890,Ho4BClO7,-3.742539989166666
3891,Na2ThF6,-3.845326318678161
3892,KFePO4,-2.442911639119047
3893,Yb2Fe12P7,-0.6521369882539689
3894,ThNi2B2C,-0.4936618447222223
3895,MgAsH16NO10,-1.3747780591379308
3896,Cs3Cr2I9,-1.172009813128079
3897,NiGePt2,-0.3318706437499994
3898,Sm2Fe14C,-0.03540030970588211
3899,Mn(BiSe2)2,-0.6536222074722906
3900,Rb3AsSe4,-1.0565751164843746
3901,Sc19(RuBr7)4,-1.7140573130392156
3902,AcSnPd2,-0.669023604375
3903,SrLaMgRuO6,-2.8102867721666676
3904,TmVO4,-3.2175133952777784
3905,ErNiC2,-0.34481859249999935
3906,Eu(ErSe2)2,-2.193650399553572
3907,Ca3(BN2)2,-1.3371326959259253
3908,PrMg(BO2)5,-3.095638276225491
3909,Ce(GeIr)2,-0.7863183969999994
3910,Cs2EuCl5,-2.3447106910452584
3911,Bi7O5F11,-2.42651105402174
3912,TbTe,-1.520074255
3913,LuCdPd2,-0.7759018699999993
3914,BeSiIr2,-0.6631125962500004
3915,Hg4BiS2Cl5,-0.9230601134374998
3916,Cs2TiCu3F12,-2.6984311591219665
3917,FeSnRh2,-0.30102690874999993
3918,EuAs,-1.1474164616666667
3919,Ba2Ta2O7,-3.4414653763636354
3920,Rb5TiSb7O22,-2.117265942309523
3921,K6Si2O7,-2.4870975168666667
3922,BaThO3,-3.7750967630000005
3923,SmAl3Ni2,-0.6360941425000001
3924,Y2Nb3Ge4,-0.7451493006481482
3925,ErCoC,-0.34060818333333387
3926,ThGa,-0.5277743150000003
3927,NClO3,-0.5219548930000002
3928,ScBi,-0.6574208275000002
3929,La3AgSnS7,-1.7949758023784728
3930,RbGd2CuSe4,-1.7521881571093747
3931,K2In12Se19,-0.8867845633494317
3932,Tm3C4,-0.36490872571428423
3933,Lu5Zr3(Ni4As3)4,-0.8007702125000004
3934,Mo3S7Cl4,-1.138211264598215
3935,Y5Ru2,-0.33348233119047627
3936,Gd3ReO8,-3.269871693958334
3937,MnTlCuSe2,-0.5396292951903732
3938,Mg14Ge5O24,-2.7967738048837214
3939,Rb2Hf3OF12,-3.9645788738888887
3940,KIn4,-0.11620216459999995
3941,AcPbAu2,-0.6348138106249999
3942,K5RbZn4Sn5S17,-1.078935754707031
3943,Li2HIO,-1.662371665333333
3944,K2ThO3,-2.953071218916667
3945,CoP,-0.5836111729166671
3946,Ce2CoSi3,-0.7171447208333331
3947,ErPt,-1.3091699112500006
3948,La2Si2O7,-3.6739532227272718
3949,SrGe,-0.6205029233333335
3950,LuGaPd2,-0.8680045743749991
3951,BaGa2B2O7,-2.76367061236111
3952,Pr3CuSnS7,-1.734166353906249
3953,Ce(GeRu)2,-0.6494944430000004
3954,EuSeO3,-2.2500273414687504
3955,Ce2Si5Pd3,-0.7774343205
3956,Ag2Bi2S3Cl2,-0.7509246222453707
3957,V3Ni2,-0.18754469166666657
3958,Al2VNi9,-0.3971983683333337
3959,Ce2Co3Ge5,-0.6014831905000001
3960,CaSmB12,-0.4394921860714283
3961,La3Ir2,-0.6879038750000006
3962,Rb2ScInCl6,-2.169180364
3963,Rb3CrF6,-3.07486954375
3964,Ba3Nb2NiO9,-3.012425277833335
3965,Mn4Nb2O9,-2.541547874114944
3966,Bi2(S2O7)3,-1.7676181182327586
3967,La(GePt)2,-0.9680737824999994
3968,Ge2N2O,-0.8186400619999994
3969,TiCdFe(PO4)3,-2.62978317212963
3970,Tm5Sn3,-0.6960683335416666
3971,Ti3VS6,-1.6097212748750003
3972,Rb2MnF6,-2.902275097547893
3973,ZrZn22,-0.07001473760869582
3974,Zr2P2O9,-3.297549264743591
3975,Cs5Th(PS4)3,-1.326389347840723
3976,Cs2AgBiCl6,-1.706945921252873
3977,Dy6Nb4Al43,-0.3335696612264158
3978,Ba2Na2U(S2O)2,-2.367259244145768
3979,Sr(NiP)2,-0.7840606739999998
3980,Th2Si3Rh,-0.8849037100000009
3981,CsUF6,-3.8008870653663793
3982,Ba3(AsO4)2,-2.6919781546153847
3983,NaTaGeO5,-2.731204617068965
3984,Rb3Ta2AgSe12,-1.0207027109606486
3985,CeSi2RuRh,-0.9622876379999994
3986,BaCu,-0.07352391000000003
3987,LaVO3,-3.2793024510000004
3988,Nb7Ni6,-0.20618270538461575
3989,Er4MgCo,-0.15819088833333397
3990,NaNb13O33,-3.040914767479824
3991,CaZrTi2O7,-3.6219146856060602
3992,LiAlPt2,-0.9390679333333329
3993,SrSnP,-0.7432952133333336
3994,Dy2Cr2C3,-0.3056125314285702
3995,BaIF,-3.1473909024999998
3996,CsScUSe5,-1.5738388862062225
3997,Tb3Ni,-0.2371597506249996
3998,GaFeRh2,-0.4294900593750004
3999,Li4SiO4,-2.6920874681481477
4000,HoCdNi4,-0.3610814949999999
4001,DyCuSn,-0.60230923
4002,K(CuSe)2,-0.7211713455374991
4003,KInAs3H7O13,-1.6126111547200004
4004,Er5Ir3,-0.859720556250001
4005,NdAgAs2,-0.7741077797916667
4006,Tb2Si3,-0.6406996279999995
4007,Ho(Ge2Rh3)2,-0.7379778190909085
4008,K2NaBiCl6,-1.8921426182551726
4009,Si4Rh3,-0.7076544685714288
4010,Ca(YS2)2,-2.3862715551190474
4011,Ba2CaMoO6,-2.9021334960000003
4012,CoH2SeO5,-1.2677928863715284
4013,CeSiHRu,-0.7722461362500006
4014,Na5H4BrO4,-1.5951088216256153
4015,Cs2PdCl4,-1.7513427579802952
4016,Ca3(SiIr)4,-0.8772636509090911
4017,Rb(WO3)3,-2.2417004525000004
4018,RbHgF3,-2.23238786
4019,Ba2NiOsO6,-2.200200455833333
4020,NdPbAu2,-0.6131983449999998
4021,La2B4Rh5,-0.6856306933333333
4022,Ba2ScOsO6,-2.880642839000001
4023,NaSc(SiO3)2,-3.3197474106551725
4024,TbB12,-0.24801617769230797
4025,NbPbS2,-1.1301450515625007
4026,Ca3Hf2AlFeSiO12,-3.4329405892500007
4027,Rb3Mo12PO40,-2.075744258050596
4028,YbMnO3,-2.7028123705862073
4029,MnBe2Pt,-0.4764897844827587
4030,CeNi4B,-0.45288072069444496
4031,K2MnH2OF5,-2.5212497142210037
4032,Ba2SiTe4,-1.3028892721428567
4033,Sm12(OsC3)5,-0.2855624617187509
4034,YbNi2B2C,-0.4427527947222221
4035,PuPt3,-0.6787774674999998
4036,CsTbP2O7,-3.1461123188270634
4037,ZrO2,-3.8136169366666657
4038,Al2Ge(O2F)2,-3.172504027499999
4039,ErGe,-0.8526977425000002
4040,EuCdPb,-0.42966919666666686
4041,TbCo3B2,-0.48404902055555493
4042,LaCuS2,-1.7180742709375005
4043,LaEuB12,-0.5233922214285707
4044,Er2C,-0.3200709900000002
4045,AlTl2F5,-2.9756468817708335
4046,Lu2AlNi2,-0.6029130659999993
4047,Ba2LaC3O9F,-2.8591860360937495
4048,EuIn3,-0.36507162875
4049,LiTbO2,-3.271696379583333
4050,Ba(GdTe2)2,-1.809478606428572
4051,Eu(AlSi)2,-0.3190790050000004
4052,KGd(CO3)2,-2.5560246238000004
4053,NaB(S2O7)2,-1.9135842281609186
4054,Ba2Ta6Te2O21,-3.075686323064517
4055,DyGa3Ru,-0.5874724415000003
4056,Nb6Pd2Se15,-1.0568499100067938
4057,Ba3Ge5,-0.5494054393749996
4058,Ba(AlS2)2,-1.7553077330952382
4059,Tm3Pt4,-1.2683758528571423
4060,CoSeO4,-1.2361976966406256
4061,Nd4Re2O11,-3.1451621235294103
4062,Dy3(In2Co)2,-0.36974441222222193
4063,RbSiBiS4,-1.0851623053571424
4064,Ca(SiPd)2,-0.7676904540000002
4065,Lu2AgOs,-0.3697777254166663
4066,RbMnP2O7,-2.5820913995088817
4067,GaFeRu2,-0.1581855243749999
4068,Eu2N,-0.8269206175000008
4069,SrV4(Bi3O10)2,-2.1852419911827954
4070,Sr(CuSi)2,-0.3220994113333333
4071,Sr2YCu2BiPbO8,-2.2517038616666656
4072,Tm2Mo2C3,-0.3911752576190466
4073,Lu2Ni12P7,-0.7655069206349197
4074,Cs4Ge(PS3)4,-0.9746238777408319
4075,BaTaS3,-1.7850286968749998
4076,Ta2Se,-0.6031548757812514
4077,U4Ga20Pt11,-0.5864159754285717
4078,Gd3SiBr3,-1.6564254921428585
4079,BaPaO3,-3.5698804210000006
4080,Rb5GeP3,-0.308306416111111
4081,Bi2Te4Pb,-0.5248970914285712
4082,K2HoPWO8,-2.8608290501410254
4083,Li2ZnCdP2,-0.4893170872222221
4084,LuB4Rh,-0.625268484444445
4085,YbPmAg2,-0.3695860277083334
4086,AsCl2F3,-1.8870876875000004
4087,Sr5Ta4O15,-3.479734912847222
4088,Nd2Re2Si2C,-0.5434710542857145
4089,ScMn6(Sn2Ge)2,-0.2155445655835542
4090,HC2N3,-0.19291626736110995
4091,SrNi5P3,-0.7073982818518516
4092,Ba2Ge(TeSe)2,-1.4713376199553565
4093,Rb2Ni2(SO4)3,-1.9245902156250003
4094,K4TiSn3(PO5)4,-2.6444517373020835
4095,YBe2B5O11,-3.0931148927631575
4096,Y2MgAl,-0.299468005833333
4097,LiCrN2,-0.6791987520833329
4098,FeSCl7,-0.9331438142361116
4099,Ba2MnSe3,-1.7726311841603806
4100,VCo2Ni,-0.19897787583333346
4101,Tl4V2O7,-1.8255633152564106
4102,La(PO3)3,-3.01244707346154
4103,HoSb,-1.201928015000001
4104,KEu2Cl7,-2.3586585113000007
4105,VRu,-0.23370608250000124
4106,PrSn3Ru,-0.4815225177500004
4107,EuNbO4,-3.187976654166666
4108,FeTeCl7,-1.156514675
4109,Zr(SiNi)2,-0.7937860339999994
4110,Ba2ZnGe2O7,-2.5801447179166668
4111,LiV3(OF3)2,-3.0529105469444437
4112,Tb3Co,-0.1419132737499993
4113,Re(TeBr2)2,-0.7900658128571431
4114,Dy5Bi3,-0.6821687037500004
4115,TlRe3(S2Cl)2,-1.0322773998333319
4116,Mg2NbN3,-1.1664787141666662
4117,BaAgAs,-0.7906591055555552
4118,Ba3Ca2(SiN3)2,-1.166643599230769
4119,Hg6BiSb4Br7,-0.6314806336111111
4120,K3La(PS4)2,-1.3819850695119054
4121,Sr2SnH18(SeO3)4,-1.4490774253434686
4122,V2Cd4(TeO5)3,-1.7885175773958337
4123,K2Mo(I2O7)2,-1.3005532529047628
4124,MgAl2,-0.021955624999999774
4125,YNi3,-0.39510041333333373
4126,Na3BeAl(SiO4)2,-2.980470083643678
4127,NdMgAg,-0.26111938222222225
4128,BaAl4,-0.24118236199999998
4129,Ni2Mo3N,-0.317415871666667
4130,Co21Cu3O32,-1.300004502410714
4131,Tm(FeSi)2,-0.6503540733333338
4132,YZnPO,-2.031543655
4133,K5CuSb2,-0.4070575918750001
4134,CoSeO3,-1.3156065530937497
4135,Rb2PtF6,-2.441966811111111
4136,ZrMn2Ag4(MoO4)6,-1.8967014640548312
4137,Sr3IrN3,-0.6655785978571426
4138,Na(CuS)4,-0.595812836561303
4139,K3Sb2Au3,-0.46661899612500024
4140,Ho3CuSiS7,-1.8039555459895833
4141,Rb2NaVF6,-3.0928419446551723
4142,Hf2PbC,-0.6298792337500014
4143,Bi2TeIClO8,-1.4025061415384614
4144,GaP3(HO5)2,-2.347638831093751
4145,Ba(IO3)2,-1.5461542233333334
4146,K3Nb2Cu3Se8,-1.0748164945468748
4147,Mn29H2,-0.016497983548388658
4148,TbMgAg,-0.2734807844444443
4149,Rb6Si10O23,-3.0185484035897425
4150,UAs2Pd,-0.6564901499999989
4151,SrGe3Pt,-0.6213693463333329
4152,LiDyTl2,-0.3179486650000003
4153,CaAs2H6F18,-2.3504276197222227
4154,LaAl5Ni2,-0.6073673781249997
4155,HfN,-1.9285340925000014
4156,Sn2(PdPt)3,-0.4612366649999995
4157,KI3F16,-2.1044185089
4158,SmPd3S4,-1.1568974709375004
4159,LiGaI4,-1.005210975972222
4160,FeP2(H4O5)2,-1.8053191688888892
4161,Er2ZnIn,-0.39114280000000035
4162,CeRh3,-0.6345121787499997
4163,NaPaO3,-3.4504570523103455
4164,SrIn2Rh,-0.4955987679166669
4165,Sc3Al,-0.26887651374999955
4166,BaSn(HO)6,-1.7656468932142866
4167,SmMgAg,-0.2655895983333336
4168,Ba5Li2(TeO5)3,-2.4423239194666673
4169,NaGdF4,-3.9394567816475097
4170,RbSn2(PO4)3,-2.54050587986111
4171,H9BrO4,-1.1924917787499996
4172,K2FeO4,-1.4348460944285708
4173,K2Dy4Cu4Se9,-1.5062431951101976
4174,Na4Ni5(P3O11)2,-2.3412448836812687
4175,YbB6,-0.46037646214285594
4176,PmEuHg2,-0.5032933981249998
4177,Ho4CdCo,-0.2541252191666666
4178,La3AlO,-1.4739111120000004
4179,Ba3Dy2MoO9,-3.178873902
4180,Eu2ZnP2,-0.9910008963333325
4181,Hf(FeGe)6,-0.2321036869230769
4182,Eu(SiRh)2,-0.9726205190000001
4183,CsLiBeF4,-3.3559590544663385
4184,U8VSe17,-1.4419387015324514
4185,Sb3O2F5,-2.40440123575
4186,Ba2NiMoO6,-2.44925366
4187,Sm2CdIn,-0.4160911949999999
4188,LiGe2N3,-0.5093700038888885
4189,TmAgSe2,-1.4284492082552083
4190,HgMoO4,-1.5410375866666677
4191,YbCu4Au,-0.3477118966666666
4192,Ba2ScUO6,-3.6757586775000006
4193,Tb2Mo4O15,-2.5216190476190468
4194,BaV2O6,-2.693702669259259
4195,Ni5Ge3,-0.31102417749999933
4196,Li2Sn(H5O4)2,-1.5572855886507935
4197,EuGa4,-0.447087543
4198,Cs2P2Pd,-0.5139351485057467
4199,CsSbTeO6,-1.823607125881226
4200,KGe2(PO4)3,-2.481677358222221
4201,Sr4MnRuO8,-2.612109607114122
4202,Li2Ti6Zn3O16,-3.0216944254320985
4203,ScBe13,-0.1672637771428574
4204,Y2NCl3,-2.478185204722223
4205,LiFe2F6,-2.7551215498148145
4206,Sm5Pb4,-0.5669619549999996
4207,Ca3(GaNi)4,-0.48715241545454546
4208,LiCoCuF6,-2.2792070714814816
4209,K3SmGa3B12S12I,-1.0128594430937499
4210,PrSb2,-0.9345363716666663
4211,CeNi3,-0.38850938500000015
4212,NaLiLu2F8,-4.040401546657088
4213,NdHO2,-2.89001380625
4214,CaPr3(FeO3)4,-2.6369259897499995
4215,Nb2CdO6,-2.716614637500001
4216,TmAlGe,-0.6281606155555556
4217,ErBiPt,-1.0249048499999998
4218,Ba2InBrO3,-2.5624070325000003
4219,YbGaGe,-0.611367126666666