,formula_pretty,formation_energy_per_atom
28166,Ti6Al16Ir7,-0.7619851437931039
28167,TbMgIn,-0.3935501422222225
28168,Ba3NiSb2O9,-2.4253364181666672
28169,EuCuO2,-2.28446291625
28170,Pr2ZnBi4,-0.5578397942857143
28171,NbTc,-0.12953948000000004
28172,PaGe3,-0.45621169875000067
28173,CaMoO3,-2.6193791524999996
28174,HoAu,-0.8919485050000002
28175,YIn3,-0.41848096416666625
28176,HoAl7Au3,-0.5063333095454545
28177,Gd2B3C2,-0.47764804249999926
28178,KInSe2,-1.140028940046875
28179,LiGd(SO4)2,-2.390460905798611
28180,EuSi2,-0.459951155
28181,YbEuSi4N7,-1.3054393007692302
28182,GdCuSb2,-0.7422639950000001
28183,Nb2Se9,-0.897917572826704
28184,Zr3Ni3Sb4,-0.727576778000001
28185,NaPuO3,-2.926313096310344
28186,Er11Cd45,-0.2099609930357142
28187,Nd23Cd4Pt7,-0.5973471647058827
28188,Ba2Y(CuO2)4,-2.0529924817777783
28189,Ba2InBiO6,-2.2861663325
28190,ZnSiN2,-0.9625755725000005
28191,Lu2CdIn,-0.3541096374999997
28192,Ba6Mn2Zn(ClF2)6,-3.3606468935504465
28193,Sr2NiTeO6,-2.3153934383333334
28194,Ti4S8Br6O,-1.5862689093859659
28195,Rb2PaF7,-3.7962250972500002
28196,Lu3Ir,-0.6566908700000003
28197,K2LiTa6(PO8)3,-3.1259788122037033
28198,Cs2NaPrF6,-3.5187251942413793
28199,KCr5Te8,-0.5562937109285713
28200,Yb19(Mg4H27)2,-0.6033962146913583
28201,CaAlAu,-0.6938783708333336
28202,MnNbGe,-0.32408060208812295
28203,Li2Ti3CoO8,-2.989034506726191
28204,Na3Ca2TaO6,-2.8814944245545973
28205,Sc2CuOs,-0.4088730537499998
28206,YAgPb,-0.4073987100000001
28207,Eu(GeRh)2,-0.8241587749999993
28208,LiLu(WO4)2,-2.6819570115277784
28209,Yb(SiPd)2,-0.8103537259999996
28210,Sr(SiAu)2,-0.4901248433333336
28211,Tl2Te3,-0.44776187333333295
28212,CaV2O4,-2.801427047500001
28213,ThSnAu2,-0.6425068287500002
28214,YGaCo,-0.4695363072222219
28215,NaBi3(IO2)2,-1.5544216516551728
28216,Pb,0.0
28217,CsK2Sc(PO4)2,-2.947296278971264
28218,Na3CuO2,-1.3605209091091954
28219,ScCuSn,-0.5408229066666669
28220,KMg3AlSi3(O5F)2,-3.3294626084
28221,KLi3Ca7Ti2Si12(O18F)2,-3.360595783804234
28222,Rb7NbAs4,-0.4085601518749999
28223,Sr(CdGa)2,-0.3340684383333333
28224,YH2,-0.8162507722222223
28225,ErCrB4,-0.6831973394444439
28226,GdP,-1.597667406666666
28227,LuTe3,-1.1453608737500005
28228,Na2V3O7,-2.4252166353975104
28229,Ac2MgGa,-0.2363877481250003
28230,TaSiNi,-0.6629707191666654
28231,Ba3SrSi8(NO)8,-2.352514929523809
28232,ZrSnIr,-0.7487870794444452
28233,La4Zr8Ni15As16,-0.9169388104651156
28234,Ho3PbC,-0.5497014919999998
28235,Tm(Ni2P)2,-0.8370784404761906
28236,SrTlVO4,-2.522614484642858
28237,PrSi2Ru,-0.7939189562500006
28238,Rb2Sb8O13,-1.8119126852173917
28239,Na14Cd2O9,-1.469030697068966
28240,Zn2NCl,-0.7122175831249997
28241,K3Al4P2O8F9,-3.381032454737179
28242,LaUN2,-1.5516016262499992
28243,Ba8(Bi2O7)3,-2.275887521857143
28244,Hf4C3N,-1.2364066843750017
28245,ScFeSi,-0.6585387658333334
28246,K2Se2O5,-1.6731873406319449
28247,Ac2GePd,-0.6652070499999994
28248,Pr2Ga5Au3,-0.6454726897500003
28249,YGaPd,-0.8975002505555558
28250,TmSiIr,-1.104409776388889
28251,Eu2Te4O11,-2.045256512352941
28252,NaVO3,-2.3795867753103463
28253,Ce3Os,-0.12925697937500047
28254,Ho2TlCd,-0.3310349383333331
28255,AlCuSe2,-0.8615172974218748
28256,LiEr2Ru,-0.31968374458333404
28257,DyNiAs,-1.0536094824999995
28258,LiPm2Ir,-0.4426656820833337
28259,Cs3Mn4(PO3)12,-2.6185182450094047
28260,ZrGaRu2,-0.5385582093750001
28261,GdB2Ir3,-0.6822061913888883
28262,NaCuF3,-2.309230481310345
28263,LiScAs2O7,-2.374900306666666
28264,AcYbHg2,-0.5764701406249999
28265,Na3V2P2O8F3,-2.826710384101214
28266,NaFeBr4,-1.2280190873419539
28267,Hf6BCl14,-2.1242204280555566
28268,KAu5,-0.22658726883333338
28269,NdH4S2NO8,-1.908007114765625
28270,Na2Zn2S3,-1.1531124960683503
28271,Zr2TeBr12,-1.4923809673333333
28272,Er2CdS4,-1.9584770496428578
28273,LiEu2CI3N2,-1.3939636992592597
28274,SrLi2Ti6O14,-3.396199618731884
28275,Cs2CdFe(CN)6,-0.2521956666163794
28276,Dy2Be2SiO7,-3.5859139870833334
28277,Rb2IrF6,-2.4807797544444443
28278,Mn(NO3)2,-1.1234199367145605
28279,Na2HF4,-2.291946534014778
28280,PaSnAu2,-0.40483538125000074
28281,Rb2BeF4,-3.3104188860714285
28282,La3(Si3Pd10)2,-0.8085570512068957
28283,Gd(CuS)3,-1.075672669196429
28284,Er2MgS4,-2.178772083214285
28285,CdP2,-0.121630448888889
28286,K3InP2,-0.3699629259444445
28287,LaMgGa,-0.4861287197222224
28288,AlSiRu2,-0.7136201324999991
28289,PuB2Ir3,-0.5497685580555552
28290,Tl2S5,-0.5016847788988095
28291,TaTiC2,-0.750607398333333
28292,TiAu,-0.425913224166667
28293,Yb(CuSi)2,-0.43905417799999996
28294,HfSiPt,-1.1031983116666666
28295,Ta(ICl)2,-1.3030224460000006
28296,Ba2CoO4,-2.332556355000001
28297,CaBr2,-2.402410735
28298,RbMnVO4,-2.34115779666872
28299,U2(InSn)3,-0.08838738062499996
28300,EuCu3Pd2,-0.35624866250000053
28301,Eu(NiP)2,-0.9032492543333334
28302,TbIn5Rh,-0.41236668285714273
28303,NdAgHg2,-0.36369274166666665
28304,Sc2RuPt,-0.956615918749999
28305,Tm4B3C4,-0.5108982849242433
28306,LaSb5O12,-2.1827053336111115
28307,GdSiRu,-0.8194987516666666
28308,Ba4Zn4B14Pb2O31,-2.750472260363637
28309,K4TiO4,-2.3870159428148146
28310,Al11(CoSi)6,-0.41058879250000013
28311,Zn9Fe4,-0.04323186884615364
28312,RbNb2PS10,-1.085460263363095
28313,Rb2MnSO4F3,-2.5132519012323673
28314,Rb4LiZr3H2F19,-3.465547159770115
28315,Cs2NaTbF6,-3.5896914427413797
28316,K2As2Pd,-0.5172536682000001
28317,Mg(BeN)2,-1.1925267340000005
28318,Pr3(Al3Os)4,-0.5582080189473686
28319,CoPtF6,-1.9461036374999994
28320,ScAlCO,-1.8839163825000007
28321,HfCuSi,-0.5826309316666674
28322,TbSnGe,-0.6387217816666665
28323,TbHg3,-0.359404485
28324,NaCu2H3(SO5)2,-1.5740449159889849
28325,Tb2(MoO4)3,-2.6573523548529416
28326,LiVAsO5,-2.185212173229167
28327,SrBeB2O5,-3.1266223708333345
28328,Er(Al3Ni)3,-0.5249136638461537
28329,ErAu4,-0.6011432540000001
28330,TbCoSi3,-0.6291181950000002
28331,Sm8Ga3Co,-0.35062397645833343
28332,Pd(NO3)2,-0.7562634705555555
28333,Er3Ge4,-0.768252828571429
28334,Ba2ZnBi2,-0.7408480720000004
28335,Dy3Ge13Os4,-0.3378069252499998
28336,NbVO5,-2.715484263571429
28337,CaMn2Be3(SiO4)3,-3.0431684744458134
28338,Lu4MgGe4,-0.7582904663888885
28339,YbCu2,-0.2918809500000001
28340,NaHg,-0.247130859525862
28341,TaSnRh,-0.44333697499999997
28342,ReIr,-0.19842680750000063
28343,RbHo2Cu3S5,-1.4676214648295451
28344,LuSnRh2,-0.8562613112499999
28345,Na3Li3V2F12,-3.193279551857759
28346,CoP4H16(NO8)2,-1.6677812525213676
28347,ZrVGe,-0.6615674383333333
28348,Sr3Sn3Au8,-0.5635071332142856
28349,CaMnSiO4,-3.054610569347292
28350,Al12Tc,-0.1751089261538462
28351,Ba2(IrO3)3,-1.8714582039285728
28352,Tb6NiBr10,-1.8967642102941185
28353,LiFeN,-0.45896592611111114
28354,Ca12Al11Si3Cl5O32,-3.403650464444444
28355,KNaGeO3,-2.1173266099252874
28356,Mg3In,-0.08232372999999993
28357,Li2BPt3,-0.5706453247222214
28358,Zr2Te3,-1.1543426099999998
28359,BaS4O13,-2.0030142793055563
28360,BaAlGe,-0.47589047500000053
28361,Na2MnH4(SeO5)2,-1.5403976718801042
28362,Zn2TeMoO7,-1.7993342027272725
28363,Sr2LiCBr3N2,-1.7214537693518512
28364,PrMgHg2,-0.46934328375
28365,TiGaRu2,-0.6202607677083334
28366,Na5Al3H14,-0.26451446489811886
28367,Sm2SiSeO4,-3.393738974042969
28368,YZnGe,-0.6853151238888889
28369,LaMoN3,-1.1145986460000004
28370,Cs3NpH8O9,-1.8676966517877673
28371,LuCrO3,-3.2538209385
28372,Y2CdS4,-1.9546528129761904
28373,Na4TiO4,-2.430200739948914
28374,GdAsO4,-2.8073926349999994
28375,Li2ZnAu,-0.39488716916666666
28376,Mg2Sn,-0.18713612833333335
28377,K2YHf(PO4)3,-3.2088612436271937
28378,Y(AlFe)6,-0.38860034512820635
28379,SrCrSn(PO4)3,-2.7480316798148134
28380,Ba3Tm(BO2)9,-3.138645209005376
28381,CaSmCd2,-0.35740101624999987
28382,La2SiO5,-3.7784767031249995
28383,Ba4Ta10FeO30,-3.354702215555556
28384,Fe3Pb5F19,-2.6728173521296297
28385,BaCuAs2O7,-1.972173948181817
28386,Hf9FeRe4,-0.3076961746428566
28387,CaIn2Rh,-0.5189658071875005
28388,CdFe2Sb2(PO4)6,-2.353919028285715
28389,Cs(WO3)3,-2.24610700561008
28390,Pr2P2AuO,-1.7676586569444435
28391,Li5Mg,-0.022566929444444384
28392,HfS2,-1.9123558354166665
28393,ErCdRh2,-0.5958968274999998
28394,Zn(InTe2)2,-0.6166465085714284
28395,RbMo3Cl7,-1.5247310256818187
28396,PaFe3,-0.010253685000000345
28397,SbTe(ClF2)3,-2.11891239
28398,MnCo2Sb,-0.14476611948275853
28399,TaNiGe,-0.4274716991666665
28400,Eu(NiAs)2,-0.7346360369999999
28401,La2Zn17,-0.2730979310526315
28402,BaSc3AgS6,-2.0085496748106055
28403,AlV2C,-0.51590133875
28404,Ba3LuIrRuO9,-2.6162127863333335
28405,Tm10In20Rh9,-0.5891029364529918
28406,NdInNi4,-0.3142810316666669
28407,Cs2NaDyCl6,-2.502750744241379
28408,CaNb2P2O11,-3.057445882291667
28409,Yb5Co19P12,-0.8220395329166676
28410,Nd12(OsC3)5,-0.24331175296875074
28411,LiPm2Rh,-0.3707304620833334
28412,Rb2NiF6,-2.3913731833333336
28413,Tl2SO4,-1.674121211041666
28414,Mn(AlS2)2,-1.2362419629187198
28415,Ho2SeO2,-3.5010285944687487
28416,NaNbO3,-2.8455179263103445
28417,Ca(FeSb3)4,-0.2883723400000001
28418,CeCdAg2,-0.17235759208333334
28419,PrAl3Cu,-0.47102813500000024
28420,SeF4,-2.07306927496875
28421,Ba4Mg(BiO4)3,-2.3163520749999997
28422,La3Cu3Bi4,-0.6539279970000003
28423,LuCo2,-0.26228742500000024
28424,PaRh3,-0.8836739399999995
28425,Gd2Re2Si2C,-0.5852679657142842
28426,La2Ga12Pd,-0.45718076266666635
28427,SmCdIn,-0.4163478733333334
28428,La10(ErS3)9,-2.4682916190081525
28429,Zr2SN2,-1.889581994625
28430,Gd2Ni7,-0.3698567255555566
28431,TiSiPt,-0.9836567786111109
28432,Dy3NiGe2,-0.7900532841666662
28433,RbNO3,-1.4214499055000005
28434,In2Ni3Se2,-0.44467370066964257
28435,MoPbO4,-1.9304668050000007
28436,PrAl3,-0.4380153612500006
28437,SmGdAg2,-0.29726334208333327
28438,TmTlS2,-1.7358749240624993
28439,Tb20In40Rh19,-0.5978424375949368
28440,NaCaAsO4,-2.5032650287931033
28441,Li2Ti6PbO14,-3.2084981737681146
28442,MnRu3,-0.00399638198275909
28443,Cs2PdCl6,-1.6001494562068967
28444,K3PSe16,-0.7231915109916663
28445,Dy(Ni2P)2,-0.831162831666667
28446,TbCuPbSe3,-1.242048719505208
28447,BaGdCrFeO6,-5.153569277999999
28448,SrMgP3N5O2,-1.6271633730555557
28449,LiMnCrO4,-2.2269477001806237
28450,Cd(NO3)2,-0.9971092073611109
28451,SmTmMg2,-0.08026921041666668
28452,Nd3Co4Sn13,-0.36612699225000045
28453,Lu2Al3Co,-0.5054821333333338
28454,LiIn2Ir,-0.3131625808333336
28455,LiInP2O7,-2.6036632899999987
28456,HoGaPd,-0.8964581199999996
28457,Sm7Pt3,-0.7690078720000002
28458,Ba3Te2O9,-2.3881687796428586
28459,Cs2EuCuCl6,-2.0682148090862067
28460,K11Cd2Sb5,-0.4856304557222223
28461,Na2CoGeO4,-1.941321684762931
28462,TmAlAg2,-0.33426197
28463,Ca3(Si4P7)2,-0.40223152466666706
28464,ZrI4,-1.2278710093333336
28465,Rb2SbCl6,-1.7479919894444447
28466,Ho3Sc2S7,-2.3095362943229163
28467,YbSn,-0.6589333324999997
28468,Lu7(NiTe)2,-0.7439968581818177
28469,Dy3FeB7,-0.5937957608333332
28470,Tl2Au4S3,-0.411098320115741
28471,Ac2S3,-2.4599355311249993
28472,TlAgPSe3,-0.46557172797743007
28473,Sc(ClO4)3,-0.8931898865625003
28474,K2LaBr5,-2.2593153566875
28475,FeCO3,-1.7901851929999992
28476,ThSi3Rh,-0.8209118680000003
28477,Sr5Pb3F,-1.1626675550925922
28478,Ta2Hg3S(O2F5)2,-2.65462343565625
28479,Nb2SiTe4,-0.7378038710714289
28480,La4Cu3Sb8,-0.8690525846666673
28481,Na3Cr2P2O8F3,-2.7411365515086206
28482,Ba2LaAg5S6,-1.2747250590773807
28483,YTc2,-0.17673010055555474
28484,Dy6GaCo2,-0.2810693780555553
28485,Nd2SiSeO4,-3.380637465605469
28486,TlH4NCl4,-0.9291320728333335
28487,NaP3(PbO3)4,-2.3748503318275866
28488,Sr2Cu(IO)2,-2.0402501790476184
28489,BaBiIO2,-2.1841239299999997
28490,PrSi2Ni9,-0.4596466537500004
28491,LiFeBO3,-2.3321427445833334
28492,Ba3GeS5,-1.862527138958333
28493,K3Zn(BO2)5,-2.651518055254386
28494,TiBeIr2,-0.8116074145833334
28495,Zr3Mn8Al,-0.2039987144540234
28496,TiTe3O8,-1.9970045419444442
28497,Ba(SmTe2)2,-1.7951518453571436
28498,Sm(BOs)2,-0.4515133046666676
28499,NaCo3As3(HO6)2,-1.622688907931034
28500,Ba2SnSe3F2,-2.4268153624414053
28501,Na2Mn(PO3)5,-2.5818914985957027
28502,Tb2Pt2O7,-2.4502483340909085
28503,Sr5P3ClO12,-3.331533741825397
28504,K2O2,-1.2954442415000003
28505,Eu(Ga4Co)2,-0.3695704225000004
28506,NdGaPd,-0.8396488299999998
28507,TmAl2Ni,-0.6517256754166665
28508,TbPaO4,-4.1854842125
28509,GeAsAu,-0.07795318999999996
28510,KFeCl4,-1.6362459992499996
28511,Sr3Li6Ta2O11,-2.9498287086363635
28512,KNaHf4(PO4)6,-3.255749806654216
28513,Zn6Ru,-0.14389365900793682
28514,BaYAgSe3,-1.7819093400607635
28515,Sm4CuSn8,-0.5781344869230765
28516,NdHS3O11,-2.1664910523046874
28517,Na3LaMn3(AsO5)3,-2.2146328721379316
28518,KFe2S3,-0.9283178428958335
28519,Ti3AlC,-0.5924399459999989
28520,Eu(PPd)2,-0.8909821183333321
28521,GeH4,-0.037556635500000365
28522,CaAs3F15,-2.7570231805263163
28523,Er12(MnC3)5,-0.3747400115517241
28524,Bi4O7,-1.5692018181818177
28525,KNiPO4,-2.319866834119048
28526,Yb2AgGe,-0.5734001854166668
28527,NdBi2BrO4,-2.3604450571874995
28528,PH6SN3,-0.5158634282007571
28529,ReRh3,-0.07340000625000087
28530,Tb3Sb5O12,-2.6612242595
28531,Na(ScI3)2,-1.4990454946168583
28532,NaDyCl4,-2.525342166091954
28533,K2Zn2(MoO4)3,-2.045391098210527
28534,Y6CoI10,-1.430263331470589
28535,TiIN,-1.3975229477777777
28536,Tl(WO3)3,-2.075965166794872
28537,H4IN,-0.5746302949999998
28538,TlFe(SO4)2,-1.7925508382986113
28539,K2Au(IO3)5,-1.034940653956522
28540,Pr2(SO4)3,-2.618587175257353
28541,MoS2,-1.2015578587500002
28542,Gd(AlC)3,-0.2620904564285717
28543,La(MgSi)2,-0.4597890589999999
28544,P2Pb(XeF6)3,-2.1241002115277783
28545,PAuClF3,-2.0387340918055554
28546,CaIn4Rh,-0.3934383033333333
28547,LaPPt,-1.3901353794444447
28548,La4S3N2,-2.186782405486111
28549,SmInCu4,-0.2455828008333333
28550,GdCBr,-1.270974790833332
28551,PrB2Rh3,-0.6362319738888887
28552,UMnB4,-0.588352284516283
28553,BaAl9Fe2,-0.3166822558333333
28554,Ac2CuRu,-0.043319389999999736
28555,TaAlZn,-0.24376478166666735
28556,LuGa5Co,-0.44840198464285763
28557,KTcO3,-1.9866906196000003
28558,Sr9Zn4(CuO7)2,-2.493005430344828
28559,Tm6GaNi2,-0.3899800569444436
28560,Li3V2(PO4)3,-2.7279322890000004
28561,CeSe,-2.050689328671874
28562,Dy2TiO5,-3.8878213904166676
28563,CaSO4,-2.6690937080208332
28564,PrB6,-0.4832376585714278
28565,DyPS,-1.7311006942361107
28566,PrAlZn,-0.4290710700000003
28567,SrAg2,-0.3027844816666665
28568,MoRu3,-0.06109903750000001
28569,Zr3Ir,-0.5246133168749996
28570,Al2ZnTe4,-0.7049408199999999
28571,B5H4NO8,-2.19219108712963
28572,ErMnB4,-0.6783369740996174
28573,Rb(SiPt)4,-0.6703912519444444
28574,Na3Zr2Si2PO12,-3.1486646046494258
28575,Li4WO5,-2.3375955218333333
28576,YbCrO3,-2.816895287500001
28577,TlV2AgO6,-1.8987390395000006
28578,Tb4SiBr6,-1.8975370540909091
28579,AlRu,-0.6734773924999997
28580,YbCeRh2,-0.7076517662499997
28581,LuOF,-4.3439618000000015
28582,Dy2Hf2(MoO4)7,-2.5890902156410265
28583,TiMnGe2,-0.42111617844109145
28584,AgAs3H2O9,-1.419535547111112
28585,Ho4Ga12Pd,-0.6018659952941171
28586,TiRu,-0.7631157591666664
28587,Li7Sn2,-0.37388265648148156
28588,LaAlGe,-0.7100997416666667
28589,K4LiIO6,-1.6619746724236109
28590,NaErO2,-3.190188708512931
28591,Y2OsC2,-0.37825072216666483
28592,Mg5Ni9P7,-0.589385008253968
28593,DyNi2B2C,-0.5161893047222215
28594,Tl2(IO3)3,-0.9393163511904764
28595,ReF6,-2.4780777928571425
28596,K2Ge(S2O7)3,-1.8820931931583336
28597,GdSiPd,-0.8826034216666668
28598,Sr3GaAs3,-1.0127270244642854
28599,RbMg149,-0.012157422383333293
28600,Nb3Br8,-1.3176105440909092
28601,Nd2CoTe2(SO7)2,-2.325170534821428
28602,Eu3(BO3)2,-3.182955293030304
28603,LaCO3F,-3.1332827343055545
28604,TlClO4,-0.7012676855555556
28605,K2BrCl6F,-1.1572294526000004
28606,Ca3Er3Ge2BO13,-3.324719248825758
28607,MnPd3,-0.22893815823275876
28608,Lu2FeC4,-0.32294621142857033
28609,Cs2HgMoF6,-2.5328122715862076
28610,Tl4Mo5O17,-1.8068154295512817
28611,Ba16Zn9Ge80Pd3,-0.3087155738888891
28612,Sr6Al7ClO16,-3.4203241323333335
28613,Ce2Re2Si2C,-0.535181777142858
28614,RbErS2,-2.0968328509375
28615,MgFeRh2,-0.29936372000000055
28616,ErTlTe2,-1.245966123333334
28617,BaCd2,-0.33434147666666664
28618,Ba2PdO3,-2.281943640833333
28619,ReP(Cl2O)3,-1.5522914239393941
28620,KP2Au5S8,-0.5635231640416665
28621,In3Rh,-0.28745191375
28622,RbNd(WO4)2,-2.6501695318749996
28623,Rb3LuF6,-3.5775209227499998
28624,Pu2Ni2Sn,-0.3213065380000003
28625,TmLuAg2,-0.3478060024999996
28626,Ca3B4(H4O)3,-1.1825768482575754
28627,KGd(WO4)2,-2.662541987333333
28628,Li2GeO3,-2.3221193869444448
28629,ErZnGe,-0.6463387833333331
28630,PuRu,-0.08863876250000047
28631,BPPbO5,-2.5468869526041673
28632,Zr3Tl2(CuS4)2,-1.3675224354444444
28633,Ga2CuCl8,-1.3984254154545455
28634,LiIn,-0.25493100916666656
28635,Te2AuI,-0.4061496887499998
28636,Li3Gd(NO3)6,-1.4318579730357155
28637,PrSO,-2.9232788602083333
28638,Zn3Rh,-0.33225068999999996
28639,RbNa5Be8O11,-2.5483206782103447
28640,TiAlPt,-0.9153180544444446
28641,Zr3(V2Fe)2,-0.15524164888888947
28642,NaMoO3F,-2.2866581623419546
28643,Li2S2O7,-2.096106909128787
28644,Rb2SbCl3F2,-2.2938417725
28645,NdNbO4,-3.517525953333333
28646,TiZn16,-0.06430715490196093
28647,Cs2Li3B3P6(PbO12)2,-2.6889905533965517
28648,La8Nb7S22,-2.055610206722973
28649,Pr(Al5Ru)2,-0.5159271661538457
28650,Gd4GaSbS9,-1.8454750473749981
28651,NaFeO2,-1.8026764941379314
28652,PaP2,-1.0330190822222225
28653,Tb2Al6Si4Au,-0.39333602384615374
28654,Cr5Te8,-0.4749078415384608
28655,Cs2NaAlF6,-3.413595455241379
28656,Pr23Cd4Ir7,-0.4499696499999999
28657,SmMgRh2,-0.6171677412500003
28658,Ho3Ge4,-0.778649565
28659,SrIn3Au,-0.41919699933333343
28660,Ce2Si3Rh,-0.8568904483333336
28661,Cs19(W2N5)6,-0.6732358626342557
28662,TmAlNi4,-0.5385224527777783
28663,Rb2CoP4(HO2)8,-2.0885819604301075
28664,RuF6,-1.9075818328571432
28665,Rb3Na(MoO4)2,-2.190049388503695
28666,TlSnPS4,-0.6821455327380954
28667,Cs2GeSe3,-1.1364006429822193
28668,RbLa2C6N6ClO6,-1.5974430926136358
28669,TmSnRu2,-0.4136220554166661
28670,Fe3P4PbO14,-2.4020263031060596
28671,K2Mg2(MoO4)3,-2.363153489789475
28672,CuSnF6,-2.4247175824999996
28673,Na4Cd3Se5,-1.0572924835771371
28674,Rb3Y2(BO3)3,-3.0232352466666677
28675,Sr3(AsO4)2,-2.701295636923077
28676,TlHg3As2Cl3,-0.6863561434259258
28677,Ba6Sm2Ga4O15,-2.963563003518519
28678,GaBH6,-0.09322281124999954
28679,Ba(SiIr)2,-0.8253426184999995
28680,Sr(InAu)3,-0.4712257530952379
28681,Ho4Ga12Fe,-0.5215082758823525
28682,Ti2TcPd,-0.5449043216666665
28683,PaTe3,-0.7415928849999993
28684,Ho(MnSi)2,-0.6052664731724136
28685,Er3Ni7B2,-0.5330690769444443
28686,Er2Re3Si5,-0.5522380502499985
28687,Tm4Ni2C5,-0.40578380151515087
28688,Ho2BiO2,-2.9808871860000012
28689,YbB2C,-0.3620549542708327
28690,La4Au2O9,-2.8411515138333336
28691,EuGaAu,-0.6781791558333339
28692,KErTe2,-1.5851408857500005
28693,KAlBr4,-1.7679991392499996
28694,RbYP2O7,-3.137825305530303
28695,LiV3(TeO6)2,-2.0668248868518515
28696,Li3Nd3(WO6)2,-2.9807541638749995
28697,VZn3,-0.05188143500000031
28698,La6Al5Fe9,-0.21959403274999972
28699,Ba4W(N2Cl)2,-1.6216645159090908
28700,Cs2MnSO4F3,-2.515683176538009
28701,ZrAlPt,-1.0435354033333328
28702,KV3Ge2O9,-2.380068844533333
28703,Cs3AlO3,-2.162334429113301
28704,K2Er(NO3)5,-1.4737733284130439
28705,U2Ni12P7,-0.6516792149206345
28706,PrHSO5,-2.5196144160156253
28707,Ce3Al11,-0.3550712846428574
28708,As4PRh10,-0.5268532915555549
28709,Na2Au,-0.2831007343678162
28710,Nd2MgAl,-0.2529770349999998
28711,Li6UO6,-2.73728111
28712,KAlGeO4,-2.6775919046547623
28713,Lu2MgS4,-2.1826644989285713
28714,LiPt,-0.6075527916666661
28715,HoTmTl2,-0.3084336683333331
28716,Sc3AlC,-0.5946012209999992
28717,Cs2Na2Sr(B3O5)6,-2.8737309716157013
28718,FeO,-1.4815257675
28719,ThC2,-0.252931499999999
28720,Na2US3,-1.6233311987464087
28721,TbTl(WO4)2,-2.506752594027779
28722,IrBr3,-0.7084858531250005
28723,LuCuSb2,-0.6056932324999993
28724,Li(PrGe)4,-0.7938499281481476
28725,Er2CuPd,-0.605650325
28726,Nb3AlC2,-0.5221489541666658
28727,Sc2Ge4Mo3,-0.5426714263888878
28728,Mn8Cl3O10,-1.933167151592777
28729,Zn(SbO3)2,-1.8847190616666676
28730,LaZnNi4,-0.33468033583333323
28731,Nd5Sb3,-1.0386895981250008
28732,NaNp2F9,-3.7131198476293115
28733,Ca2Eu(Zn3Ni2)3,-0.3052738608333334
28734,K2NaRhF6,-2.6403530157551724
28735,Sm2SbO2,-2.9598467880000014
28736,Lu12(MnC3)5,-0.3932029743642236
28737,ErSnPd2,-0.8913002137499992
28738,Sr6YSc(BO3)6,-3.341654548020834
28739,Er4(Al8Pt3)3,-0.9036648551351357
28740,Cs2NaRhF6,-2.626040918741379
28741,SrFe2(P2O7)2,-2.6302927495238086
28742,HoGa3Ru,-0.5862678881666663