,formula_pretty,formation_energy_per_atom
12508,TlV(SO4)2,-1.9739986682986117
12509,LaMgNi4,-0.3116348224999997
12510,CaSiPt,-0.9523060841666661
12511,VCu13Sn(AsS8)2,-0.5652692757575756
12512,LiGaPd2,-0.7043716602083325
12513,PmCdAg2,-0.288163630208333
12514,Li7BiO6,-1.9806555430952375
12515,Gd2HgO4,-2.983534868571429
12516,Tc3Os,-0.05548136625000133
12517,Li2CaHfF8,-3.884694783888888
12518,Ba2BrN,-1.411808948125
12519,Li3La2(BO3)3,-3.126190797205883
12520,Nd6Si4Ni7,-0.6133575976470591
12521,ScCo2Sn,-0.40969497750000006
12522,NdBiRh,-0.7165384575000004
12523,Mg2Mn3O8,-2.2498417356763936
12524,Gd3MnGaS7,-1.8334517897755032
12525,PmSbRh2,-0.624554286875
12526,MnSiNi,-0.46811886514367745
12527,Zn(NiO2)2,-1.2302780357142862
12528,BaZnSi,-0.35156857499999994
12529,Tl4Ag18Te11,-0.27274820131313116
12530,Ca3Al3N5,-1.34901443909091
12531,Li2Sm2Ge3,-0.7002023638095233
12532,Tb2Fe3Si5,-0.6560090242499989
12533,FeP3H5NO10,-1.95467715125
12534,LiTm2Os,-0.29592929791666656
12535,BaLiAlF6,-3.8616301795370367
12536,Nd3BWO9,-3.3289566149404766
12537,NaCr(GeO3)2,-2.210043549655172
12538,K4AsH5S3O16,-1.897326550047414
12539,LiAlGe,-0.29134166944444395
12540,LiSbSe2,-0.8729451295052084
12541,LiScS2,-2.0231552561458335
12542,ErCd3,-0.25836347125000003
12543,Ti2(Ni7B2)3,-0.3643861828160913
12544,Rb2Pb4O7,-1.510042240769231
12545,Ba2P7I,-0.7569405823333334
12546,LiYb2Ir,-0.3616015458333335
12547,Pr3CoBr3,-1.4234004271428564
12548,Nd3Pd4,-0.8179295378571426
12549,Li15Ge4,-0.32767289421052637
12550,BaH5ClO3,-1.7442128114999995
12551,TlGaCl4,-1.565065395972222
12552,LuMgZn2,-0.3161799150000002
12553,RbTm(MoO4)2,-2.5273082170138905
12554,Sr21(Cd2Bi9)2,-0.8309140141860466
12555,Li10Si(PSe6)2,-1.079290064725
12556,La6Mg23C,-0.10974791799999935
12557,SrLa4Si3O13,-3.7258786800793664
12558,Si3Mo5,-0.3739594918750022
12559,La3Pr(CoP)8,-0.993205209333334
12560,YbIn2Pt,-0.7422414274999998
12561,V2Cd(PO5)2,-2.483689904944445
12562,Ba2UCrO6,-3.2824790019999996
12563,Eu(MgAs)2,-0.9548160610000004
12564,LiEuBi,-0.7968139186111122
12565,CeGa3Au,-0.5582564994999991
12566,Cs2NaCeBr6,-2.1450102952413794
12567,CdP4O11,-2.458730034114584
12568,SnI4,-0.6773522655
12569,K2VCl6,-1.9317248828888889
12570,Lu(CuSi)2,-0.5201880320000001
12571,V18P9C2,-0.8044818103448275
12572,LaSI,-2.2124575752083344
12573,In14Ga3Pt2O8F15,-2.156717084761904
12574,Cs2NaYBr6,-2.1666782224080463
12575,BrNO3,-0.5364697890000002
12576,Ti2S3,-1.7068239202083348
12577,Li2AgAu,-0.4040666933333332
12578,Sn2Pt,-0.4475965800000002
12579,Zr5Co19P12,-0.8866268334722223
12580,U2Se3,-1.4595306784062487
12581,Ca3Mn3N5,-0.8771018471630108
12582,Rb2PuO4,-2.7236260249999993
12583,Sm3(AgSn)4,-0.5356615901515146
12584,La2ZnBi4,-0.6311539671428571
12585,Zn11Ir2,-0.20808895769230745
12586,Er(BC)2,-0.4416878056666661
12587,ZrP2(HO4)2,-2.688173396474359
12588,Ca2MgPd2,-0.673963818
12589,Ba4In2Te2S5,-1.7281038531250001
12590,Ni(PtO2)3,-0.9833141257499995
12591,CsReO4,-2.357778852988506
12592,NaCa2Mg2(AsO4)3,-2.542372520327585
12593,AcAg,-0.25410765958333315
12594,Y2Te3,-1.6859524941666664
12595,TiNbRe2,-0.3743390583333337
12596,USi3,-0.3229870125000005
12597,Pr(NiSn)2,-0.4866916670000002
12598,YMn2O5,-2.639069565628592
12599,LiAu,-0.5422272966666668
12600,CsFe(SO4)2,-2.0003176947234196
12601,Y10U4O27,-3.9018342890650404
12602,Sr3(AlP2)2,-0.9980636798148149
12603,V2B3,-0.7982462725000005
12604,Cd2PdRh,-0.25683600250000005
12605,Er(NiGe)2,-0.6756636759999999
12606,Yb2TlHg,-0.5635269620833332
12607,CuPbF6,-2.093298674375
12608,PrBS3,-1.5542872857083339
12609,BePd3,-0.38197974749999997
12610,Nb4Si7Ni4,-0.6066384543333327
12611,Ce(GePd)2,-0.7897677289999997
12612,ZrCuSi,-0.6445515483333336
12613,Er5BiAu2,-0.6954673000000007
12614,Tb2GaCo2,-0.39700376750000005
12615,Mg3Mn5(BO4)4,-2.588865043440066
12616,Rb4LiH3(SO4)4,-2.050174361547619
12617,Y4Al23Ni6,-0.518139684141414
12618,V2S2O11,-2.0012909179166667
12619,Ce5NiPb3,-0.3814631477777779
12620,U3Sb4,-0.3803402528571433
12621,BeI2,-0.8296143583333336
12622,CsIn3O5,-1.9233593200478936
12623,LiIn(CN2)2,-0.3532008988541673
12624,K4Ru2Cl10O,-1.7008647745294112
12625,Sc7NiBr12,-1.8083260422500005
12626,NaMn6P7O24,-2.593325190986086
12627,Sr4Ta2O9,-3.4269905531111116
12628,NaCdF3,-2.6736376008103444
12629,Sc2Si4W3,-0.5616582427777767
12630,Rb2CeO3,-2.707835265833334
12631,Y3TlC,-0.48969795866666743
12632,Sr3SbI3,-1.7158244249999999
12633,TbRu2,-0.30651157249999983
12634,HfCuSiAs,-0.5205502487500002
12635,Ag2P2H2O7,-1.8182808146153842
12636,BeH6(NF)2,-1.3303416909090915
12637,Sm3Zn22,-0.27835162360000026
12638,K2B2Se3O10,-1.9530613969920343
12639,NdLuSe3,-2.15373721340625
12640,NaHfCuSe3,-1.2888820618471624
12641,Ba4(Sn3Bi)3,-0.4683173293750005
12642,Nd4Ge3Rh4,-0.8768988799999988
12643,Cs4GeO4,-1.8621571215804593
12644,Na4Mg(GeSe3)2,-1.0989027015591841
12645,Tl2SnO3,-1.5003471177777783
12646,NaHO,-1.5518135771839077
12647,Sr(GeRh)2,-0.7838277573333329
12648,YZnGa,-0.586434846388889
12649,Tb2NiAs2,-1.2461017209999994
12650,Co8RuS8,-0.7298753035294112
12651,Ba3NaTaO6,-3.080578425141066
12652,RbEr3F10,-4.302387105178572
12653,HfUN2,-1.7471257950000005
12654,LuCd,-0.3043143049999997
12655,La3Sn13Ir4,-0.5488243419999996
12656,Ba3ZrIr2O9,-2.5779207103333346
12657,EuS2,-1.7186884254166657
12658,YAgSe2,-1.4490880457552082
12659,K6NbAs3O,-0.8488870282272724
12660,CsSc(WO4)2,-2.5981381844109195
12661,Li2CoO3,-1.7812328086111109
12662,SmH2,-0.7676084516666671
12663,PrGa3Pd,-0.6887446134999997
12664,Li3Hg,-0.27992955625000016
12665,K8Zr6MnBr20,-1.8080908740551735
12666,Be3Tc,-0.2665778212500003
12667,U3O8,-3.706795401818181
12668,SiPt2,-0.7137078466666663
12669,ErBiRh,-0.7328501144444444
12670,Dy(SiPd)2,-0.9169936559999996
12671,Li3Fe4SbO8,-1.8499192806249996
12672,In(PO3)3,-2.5493155194871795
12673,Ba3Bi2RuO9,-2.219613924666668
12674,Na3In(PO4)2,-2.552062733308703
12675,GaBr3,-1.2375509375
12676,TiBr4,-1.6587798449166669
12677,Gd4MgRh,-0.3771341029166659
12678,CeHfF7,-4.266482234722222
12679,KAuI4,-0.8054427063333337
12680,Mn(FeO2)2,-1.8361207039901493
12681,BaV2H2Se2O11,-1.9634177792881944
12682,KYP2O7,-3.132507714666666
12683,Yb(GeRh)2,-0.870365288
12684,NdGaNi,-0.5561854741666666
12685,Li2PdPb,-0.43655358666666677
12686,LuPO4,-3.520075258888889
12687,ScSiIr,-1.1532929400000012
12688,CaFe(GeO3)2,-2.3424143049999997
12689,ScInCu4,-0.2601335458333332
12690,GaFe2Co4Si,-0.30484949093749947
12691,Dy4InRh,-0.5505514741666667
12692,SmGdB12,-0.4574960067857136
12693,EuCuSeF,-2.2012552437109374
12694,CsLiCl2,-2.2026628434410918
12695,DyAlCu,-0.4529148799999992
12696,K6Be4C6O19,-2.326932480085714
12697,NaPr9Si6(SO12)2,-3.5086404192333753
12698,CrSbO4,-2.1197473379166674
12699,ScPt3,-1.040133708749999
12700,Na4CdP2,-0.33753077183908076
12701,Ca10Si6F,-0.8098235683823535
12702,NaSO3F,-2.1911526420294543
12703,CeGe3Ir,-0.6556128079999993
12704,AlPt3,-0.6926849856250001
12705,Ho2Ge2Os,-0.6964723999999997
12706,AlH14SeNO14,-1.3861198887852824
12707,CeReB4,-0.5785987698611107
12708,AcI3,-1.801003203125
12709,NdIn3,-0.4628874949999999
12710,Y3GaC,-0.4785647775000001
12711,TiVTc2,-0.4521726908333328
12712,Dy5(Ge5Rh2)2,-0.8054692828947368
12713,NClO,-0.4034238058333332
12714,InSnTe2,-0.5079530437499997
12715,CoH,-0.06571240000000067
12716,Cs(PRh)2,-0.7367924909195402
12717,LiLuSn,-0.6008618486111104
12718,HoIn,-0.43536335000000026
12719,Tm(SiOs)2,-0.7135242913333328
12720,VCl3,-1.6989492437499996
12721,UGa5Rh,-0.44571520250000013
12722,GdGaI,-1.187548964166666
12723,Ba4MgTa10O30,-3.4215426713333335
12724,Nd(IO3)3,-1.47882374923077
12725,SmAlO3,-3.6977947705000007
12726,Na2Sn(S2O7)3,-1.8733144088951146
12727,CsPHO3F,-2.492583976252053
12728,Ce4In21Pd10,-0.49778137285714236
12729,MgZnPd2,-0.66291309
12730,Sr(MgBi)2,-0.5746675313333334
12731,ErB12,-0.2515306661538458
12732,DySb,-1.2203568100000002
12733,Eu4Bi2O,-1.5472177235714273
12734,Sm2ZrS5,-2.2004455453906253
12735,Li2Mg10B12Rh19,-0.5195876788759678
12736,GdNi3,-0.3834226300000007
12737,Lu3Al2,-0.3268213984999996
12738,SbPO4,-2.3554091180555545
12739,SrTlHg2,-0.38203209000000005
12740,NdSeO,-2.8743609157812497
12741,Mg2V2CoO8,-2.4771157100000014
12742,BaAg5,-0.1636528022222219
12743,YGePt,-1.1365747780555548
12744,CsAu3S2,-0.6676739656968387
12745,Rb6Na4Tl13,-0.12566587063218385
12746,Ca6Fe(CoO4)3,-2.4580556954545445
12747,CsAu3Se2,-0.6376015537697555
12748,LaAgAs2,-0.8333995226041662
12749,K5Th(PS4)3,-1.3038192607142858
12750,RbCu(PO3)3,-2.4008481628571445
12751,YbN2,-0.8840744866666673
12752,Rb3SbS3,-1.1814210227678572
12753,CuP4O11,-2.330459821927083
12754,Ba2Zn,-0.1429963833333335
12755,Na(La2Se3)4,-2.2499830614131775
12756,Ba3(AlSi)2,-0.3360362100000001
12757,TiMn2Si,-0.5069648397988509
12758,Sr(Li2P)2,-0.8300402995238098
12759,Tb6CoBr10,-1.8871030600000007
12760,LaHfF7,-4.336469309722222
12761,Nb3Tl3O10,-2.37054975515625
12762,K3W2(O2F3)2,-2.6782271506
12763,DyInPt2,-0.9590033387499997
12764,SbRhS,-0.7984642868750006
12765,KN3,-0.41784005449999917
12766,Yb6Al43Mo4,-0.2646375772641512
12767,PrSnRh,-0.835895136666666
12768,Na2S,-1.231386725409483
12769,Rb2(NbBr3)3,-1.5182427891071428
12770,HgH2SeO5,-1.0821219349826394
12771,K2PdSe10,-0.7641509809182693
12772,PmZnAu2,-0.601804864375
12773,Na(Cu2Sb)2,-0.15424075379310306
12774,U(Zn10Rh)2,-0.1841369897826087
12775,BaHgRuO5,-1.7449191360416674
12776,Eu(PIr)2,-0.9495817710000002
12777,NaTcO3,-1.9759079443103453
12778,DyTl,-0.3315341766666666
12779,VAgSeO5,-1.5475019120638018
12780,Cs3GaSe3,-1.2809559144034794
12781,MgP6(HN3)4,-0.6741044552173902
12782,Au2Se4O11,-0.9884635893749999
12783,CsCrP2S7,-0.893175698770246
12784,NaMn6Al3H42(SO19)2,-1.6471575541346517
12785,Cd(CuO2)2,-1.0861086542857146
12786,ICl,-0.4645409549999999
12787,Er2Si4CN6,-1.3849233069230773
12788,Eu(CdAs)2,-0.6209956209999994
12789,KSm2Cl7,-2.6740378338000004
12790,Mn3Se3O10,-1.6326893403640224
12791,Ce6Ni20As13,-0.6862586083333334
12792,Cs3AlTe3,-1.1451695133990152
12793,Ti2Bi,-0.1315885222222223
12794,Zr5Sb3Se,-0.9546706647048622
12795,Y4CI5,-1.314406236166667
12796,Ba4P3,-1.0048616848214285
12797,Th(SeO3)2,-2.3089583096875006
12798,PmPrIn2,-0.4811015731250001
12799,Ba2US6,-1.7818096326388897
12800,CsAg2AsS3,-0.6577059622341953
12801,LiSbO3,-2.118194097166666
12802,Y2CrFeO6,-3.0235971843333322
12803,Al2Si(O2F)2,-3.5303047025
12804,Pr(Mo3S4)2,-1.182229251333332
12805,NaSnSb,-0.29682267218390795
12806,BaUPO6F,-3.452385829833333
12807,ThBC,-0.47244988430555424
12808,Na3SrLaZnSi6O17,-3.119491184959374
12809,NaFeAs,-0.2786807238505749
12810,Eu(DyS2)2,-2.399043983571428
12811,RbAgO2,-1.0119049160416669
12812,La3AlVS7,-2.0714686443229176
12813,Be5Pt,-0.46163002250000024
12814,Na6Mn(SO4)4,-2.1829100259163474
12815,BaNaEu(SiO3)3,-3.231417054603449
12816,PaAu3,-0.38709201999999987
12817,Yb2AgSn,-0.5841836304166668
12818,BaSiO3,-3.404014830000001
12819,Rb3YV2O8,-2.712661046369049
12820,Ca3Ga2(GeO4)3,-2.637256135125
12821,PrDyMg2,-0.09679437624999965
12822,U12Rh4Se31,-1.3382644919714104
12823,Mn6Te5O16,-1.7923293197254153
12824,Na4Ti5O12,-3.1109502420415986
12825,GdSI,-2.115914397708334
12826,Rb2LiAsF6,-2.8112580038333332
12827,NdH5(SeO4)2,-1.7194532684179684
12828,Rb2NaScCl6,-2.4035444746551717
12829,PuPO4,-3.1875004143055548
12830,Rb2NaCuF6,-2.5766485786551727
12831,Y3(Al3Os)4,-0.5955521402631586
12832,Na3Cr2(PS4)3,-0.9479048766077589
12833,SrGe3Pd,-0.5529293943333329
12834,NiPbF6,-2.283457408125
12835,HfAlFe,-0.4218209808333337
12836,KCa9Mn(PO4)7,-3.229351756179661
12837,Na5Y(MoO4)4,-2.3320377132471277
12838,KBaB(PO4)2,-2.9662909964487176
12839,KCe2CuSe6,-1.5057487442062496
12840,U,0.0
12841,LiTb2Ir,-0.5571512258333327
12842,Gd2Se3,-2.1766069649062487
12843,Pr3(CuSn)4,-0.5266894422727275
12844,CsNbCl6,-1.9395382222413793
12845,HfAl2Zn,-0.382259187499999
12846,Sr2TaN3,-1.3205044613888883
12847,TmMgPd2,-0.8475212541666668
12848,YbSnRh,-0.7698363238888888
12849,Mg2NiH4,-0.3419716925000001
12850,PrSc3(BO3)4,-3.4539054845833332
12851,LiHoS2,-2.1018951598958333
12852,KSb2F7,-2.8098470755500005
12853,CaCoGeO4,-2.3474920425000008
12854,CsTi2(CuTe4)2,-0.7726148972767461
12855,SmGaGe2O7,-2.5973548877272723
12856,TiFeSi,-0.712096355555556
12857,Hf5Sn3,-0.3801451050000004
12858,ThPSe,-1.5817199568923617
12859,Rb2Ba(Ge4O9)2,-2.248611061149425
12860,Na2BeCl4,-2.0143347493719213
12861,NdSbAu,-0.9788352141666673
12862,NaDyO2,-3.153712744137931
12863,PrThN2,-1.6392260412500006
12864,Ca3(GeIr)4,-0.6724132200000003
12865,LiLuF4,-4.0787364055555555
12866,Zr2TcIr,-0.700421884999999
12867,BaPrMn2O5,-2.7461400217624523
12868,K2BaCdSb2,-0.691712946
12869,La3(ZnPd)4,-0.7151892604545457
12870,Cs3Nb2S11,-1.2035989634792559
12871,Ba9(AuO6)2,-2.4636404122826088
12872,Na3Li3Co2F12,-2.7750384969827584
12873,CsCuS6,-0.6955989508351292
12874,Ba3MnN3,-0.8119177904187193
12875,SrCoAsHO5,-2.0747206474074074
12876,Ca(AuO2)2,-1.466216010714285
12877,Tm2Fe12P7,-0.7181572374603171
12878,Be17Nb2,-0.19779963921052668
12879,ZrHg3(SCl3)2,-1.3770987780208335
12880,CeCoGe,-0.589318038333334
12881,LiYbPb,-0.4717859266666665
12882,K4Yb2Si8O21,-3.0514590636285717
12883,GdAlNi4,-0.5152941749999999
12884,CaAgAs,-0.7890993105555554
12885,ErAg,-0.3463787733333339
12886,ReH8(Br3N)2,-0.7096147452941182
12887,Rb2Cd3Te4,-0.8756038861111111
12888,Ba4Sr2Sm2Co4O15,-2.5882013260493832
12889,Ca2CdPt2,-0.8207823059999996
12890,TbTaTiO6,-3.658820576759259
12891,BiPPbO5,-2.2255499835416668
12892,BeCN2,-0.5668106081249995
12893,LiInGeO4,-2.1731072751190474
12894,K2PdBr4,-1.4893861637142856
12895,SnF3,-2.7546237956249997
12896,Sc2NiIr,-0.8072112324999994
12897,Rb2NaNb6(PO8)3,-2.936621429765326
12898,Si2N2O,-1.9195367129999994
12899,B2Os,-0.21300159611111033
12900,Nb3SnH,-0.26096291700000196
12901,U2(Al3Ir)3,-0.6272538000000003
12902,Sm5Pb3,-0.5465153012500004
12903,LuBe13,-0.18116296000000023
12904,Ce3AlFeS7,-1.9142076384895834
12905,K9Li3Nd3(BO3)7,-2.7744334188643416
12906,Dy3ReB7,-0.6109428385606063
12907,HfScGe4,-0.5395619158333341
12908,Sr3YbRhO6,-2.789365578636364
12909,Rb2Fe2As2O9,-1.8730817254999996
12910,SrHfO3,-3.812951887333334
12911,Sr2Co(PO4)2,-2.956957950897437
12912,Cs4Si3O8,-2.7954680536149423
12913,TbGa3Ni,-0.5841260924999994
12914,YMgAl,-0.3319419711111106
12915,SmGa3Cu,-0.4943632954999998
12916,BaF2,-4.163976054999999
12917,Rb2NaTmCl6,-2.4686540488218385
12918,Nd5As2ClO10,-3.2292866211111115
12919,Ba2PuMnO6,-3.0162657397931043
12920,Li2Al,-0.16291683555555517
12921,Dy2Fe2Si2C,-0.6712953857142848
12922,Ca65Ga24Sn19,-0.5624284911574072
12923,CsCO2,-1.900267803232759
12924,TiP2,-0.8177001908333329
12925,RbNbSiO5,-3.034918943541667
12926,DyAl7Au3,-0.5108291045454546
12927,Cs3HoO3,-2.21471483768473
12928,CdSnP2,-0.09526149916666693
12929,U2B6Mo,-0.5682526719444433
12930,Tb(MnSi)2,-0.6007038151724146
12931,LaMg2Ni,-0.25011195499999994
12932,Ba6La2Fe4O15,-2.7014666372222225
12933,Hf3Tl2(CuSe4)2,-1.2047382690277781
12934,PrGa3,-0.5745424831249997
12935,CoSn3,-0.05542809312500108
12936,PuCl2,-2.1683771149999997
12937,LiMn2TeO6,-1.9291514469195399
12938,TmAlPt,-1.1760880313888886
12939,CsUCuTe3,-0.9432896604885054
12940,Yb2AgIr,-0.48215663666666675
12941,ZnWO4,-2.0551608166666675
12942,YCdAu,-0.6679274733333335
12943,V2CrRe,-0.24879634375000137
12944,SnI2,-0.7447498127777779
12945,Be3Ru,-0.3344333850000005
12946,K(PRh)2,-0.7352224939333333
12947,Mg2Al4Si5O18,-3.3330368120689666
12948,Tm2(Ga3Rh)3,-0.6894104050595234
12949,RbInSe2,-1.1508356211718755
12950,K2TcH9,-0.35262074202777743
12951,PH9(NO2)2,-1.253194965911459
12952,LuTaO4,-3.7555376099999997
12953,Y3TlF10,-4.1066272773809525
12954,MgNiSb,-0.4704885266666666
12955,V3Ni,-0.15623093875000116
12956,Na3NiF6,-2.599991866965518
12957,Y2SO2,-3.5507062312916675
12958,Ce(BO2)3,-3.156524976
12959,Tb5Si2BO13,-3.715558093531747
12960,Pr6IrCl11,-2.371523701666667
12961,CsHSeO4,-1.512813942896398
12962,Na2(TaS2)3,-1.4751272406230411
12963,Th2S3,-2.256263018875001
12964,EuSi2Ni,-0.6504765499999996
12965,NaSc(SeO3)2,-2.145424801123923
12966,NaHCO3,-1.8539594715086203
12967,Ba2BiAu,-0.8653870325000002
12968,Ca3V2O8,-3.010771011208791
12969,SrCdSn,-0.4943460305555553
12970,Ca6GaN5,-0.9477804247916678
12971,CeBPt4,-0.7607410473611106
12972,Rb2MgH12(SO7)2,-1.7312561774596775
12973,O2,0.0
12974,RbNa2AuO2,-1.2990187059339082
12975,RbSO3F,-2.2633538201041676
12976,Yb5Pt3,-1.0083649543749997
12977,Ge(SeO3)2,-1.5051566694097227
12978,Y5C2I9,-1.4394291681770834
12979,CrAuS2,-0.7607536990624997
12980,Tb2Mg3Ni2,-0.28431180142857115
12981,ErHSe,-1.6374806191145836
12982,Th(CoP)2,-1.0648955613333329
12983,Tb3Pt4,-1.2113879285714293
12984,Na2CoO3,-1.5252955467672418
12985,KCuSe,-0.837525958447916
12986,CdSb,-0.13341415624999975
12987,YbDyRh2,-0.776363505
12988,Yb3(SnPd)2,-0.8558298475000002
12989,RbHO,-1.5133575458333333
12990,SnP2(Cl5O)2,-1.5362211416111113
12991,DyCrB4,-0.6631737811111099
12992,Lu2(Ni5B3)3,-0.42565702500000013
12993,TiZnAu2,-0.35065417333333393
12994,Li5OsN4,-0.5367571891666664
12995,Ca2PN3,-1.2950019397222217
12996,Pm2MgTl,-0.25894821708333327
12997,CsSbF6,-2.925733546616379
12998,Ca6MnN5,-1.0015992410775876
12999,ErBi,-0.8033480649999998
13000,LaOsN3,-0.6134330730000002
13001,PuPb2,-0.16614404249999973
13002,Hf3TiTe20,-0.7748611651388888
13003,Mg(CrS2)2,-1.2054745867857142
13004,TiMnH12(OF)6,-1.9559608769717065
13005,NaSiAu3,-0.2574880685603446
13006,GdPt,-1.229641935
13007,Na2MgSiO4,-2.8073415485129307
13008,Ce2C(NO)2,-2.330790171428571
13009,BaIn2(P2O7)2,-2.712897647301587
13010,Ce7C3I10,-1.2891367955
13011,Ca2PbO4,-2.551106224285714
13012,AlRh,-1.0889718949999994
13013,RbCl,-2.24487043875
13014,K2YZr(PO4)3,-3.1763661219824573
13015,TbGa4Ni,-0.5429475950000006
13016,CaCrO4,-2.432013990833333
13017,Th3Au4,-0.6677044700000009
13018,MgNiF6,-2.390940620625
13019,GdSnAu,-0.8435901116666654
13020,Rb2Ge(S2O7)3,-1.8860869702916658
13021,YbPmPd2,-0.8437273543749999
13022,Cu2SiSe3,-0.5171906345052081
13023,UIN,-1.5591030983333323
13024,Rb2NaPdF6,-2.5078785396551724
13025,K4Ti2PO4F9,-3.362447681100001
13026,CaCdSn,-0.4994167372222225
13027,Zr2Ga3,-0.6147974515000001
13028,BaCaSn,-0.6761181416666666
13029,YMoN3,-1.1024362758333326
13030,NaCrF6,-2.5679022842564656
13031,KVS2O9,-2.0686482812884615
13032,BaTeO3,-2.3570523150000007
13033,NdHoMg2,-0.09228857499999998
13034,Mg2CrB2Ir5,-0.404201256333333
13035,Y3SbO7,-3.402982231363636
13036,PmErTl2,-0.3469902560416669
13037,MgV2O6,-2.530057092222224
13038,KNaPrNbO5,-2.998611041616859
13039,CsK2CoO2,-1.2430733431551733
13040,NaDy(Pd3O4)2,-1.445381858534482
13041,TmS,-2.177427229895833
13042,LiAlNi2,-0.3995444558333334
13043,Y4AsSe3,-1.9275709623372386
13044,BaBeSiO4,-3.3246161749999996
13045,NdSmHg2,-0.47122337375
13046,LiCeGe2,-0.6155100695833324
13047,Rb3Sb5O14,-1.973021488977272
13048,Sr2GdMoO6,-3.0558421433333343
13049,Pm2CoNi,-0.12500221999999983
13050,PrCrTeO6,-2.5086948699999994
13051,Er5Sb3,-0.954059043750001
13052,BaBPd4,-0.484618082777778
13053,Li8MnFe7(PO4)8,-2.5009533052011497
13054,Er5Pb3,-0.512700695625
13055,YbV4O8,-2.761169278653846
13056,LiNd2RuO6,-2.8044766913333334
13057,La3Cu4(P2O)2,-1.5429672467948718
13058,Cs3Fe4(PO4)5,-2.4343410485299932
13059,Rb2TiO3,-2.7511833172222224
13060,Yb3Zn11,-0.3120975335714287
13061,Y2(SO4)3,-2.6516192858946064
13062,TaNbTc2,-0.4146400225000004
13063,Yb2Si,-0.42996186916666623
13064,CeInPt,-0.9203993672222216
13065,Ba3NbAs3O,-1.5178749021874989
13066,MoCl6,-1.2541898333333332
13067,Pb(IO3)2,-1.0513171166666666
13068,Pa3Si,-0.28018198250000026
13069,MgSe2O5,-1.7611752093359376
13070,TmMg,-0.0582685233333331
13071,Ta2Pt3S8,-1.0524302449999998
13072,LaVO4,-3.224557474166667
13073,EuSi2(NO)2,-2.36353988
13074,TlV2I3O13,-1.3902474346491238
13075,LiCa7(GeH)3,-0.6124275986309523
13076,CeAlRh,-0.8482344591666665
13077,TlInS2,-0.7760759920833329
13078,Pr2Sc3Si4,-0.7626824752777779
13079,ZrNCl,-2.0903818983333338
13080,PaTlAu2,-0.26307651583333325
13081,SrZn(SeO3)2,-1.9248797401354167
13082,SmTlSe2,-1.6147386982552083
13083,PrAl2Ag,-0.4198502579166667
13084,YGa4Ni,-0.5441618011111112
13085,La3PbI3,-1.3097868728571431
13086,LaSnAu2,-0.7315941975000007
13087,GdThN2,-1.758480725
13088,Y2Pt,-0.9267944502777775
13089,LaGe3Ru,-0.634084541
13090,Pr6Mn(SiS7)2,-1.915253797899175