,formula_pretty,formation_energy_per_atom
1827,ErSi3Rh5,-0.9595949148148145
1828,Na3U6AlF30,-3.8338505493663795
1829,GaCuGeSe4,-0.6582163459821432
1830,Ti2TcPt,-0.7381473791666657
1831,TiZnNi2,-0.40189296333333324
1832,Al3Tl4Fe(As2O7)4,-1.932774988257576
1833,Co7NiP4,-0.5357378748611114
1834,Na2FeNiF7,-2.713320372327586
1835,Pm2CuPt,-0.64075019625
1836,EuLuCuS3,-1.9155510373958329
1837,PrYTl2,-0.38846150958333325
1838,P2Pd3S8,-0.6358818216666665
1839,ZrInPd2,-0.6936163825000001
1840,BaNdCuTe3,-1.45965567
1841,RbTmBeF6,-3.9047998876851846
1842,Cs2KZrOF5,-3.384289186636207
1843,K5B(SO4)4,-2.2352770961217945
1844,Dy2CoGe4,-0.6473304421428574
1845,Li14MgSi4,-0.23688419166666708
1846,LuBr3,-2.214933989375
1847,CaBHO3,-2.759200399861111
1848,ScTlS2,-1.6191099711458339
1849,Hf3AgHg3F20,-3.0461366932098777
1850,Tl(BH)6,-0.30547691371794844
1851,Ca(B3O5)2,-2.970921704558823
1852,Dy2Al3Si2,-0.5277059285714277
1853,Na2InNiF7,-2.78010367096395
1854,Zn(H15N8)2,-0.37448454287234073
1855,Hf(CoSi)2,-0.7360970340000008
1856,HfGeRh,-0.8797171883333341
1857,Eu4Cl6O,-2.8793898663636357
1858,Hf21Re25,-0.4112754329347828
1859,Cd3Au,-0.13127570499999988
1860,V5B6,-0.8301574040909091
1861,Se,0.0
1862,Ta2ReOs,-0.3508472900000008
1863,YbIn2Pd,-0.6635041049999999
1864,Ac2CdGe,-0.3957709024999998
1865,Ca3GeO,-1.7046493000000003
1866,ErZnCuP2,-0.7652317193333339
1867,ZnSnRh2,-0.48626373624999975
1868,Tm3Co29(Si2B5)2,-0.4190166948188394
1869,Sr(AsRh)2,-0.793674849333334
1870,CeNiGe,-0.7390951174999998
1871,K2Na2IrO4,-1.568685574900383
1872,Nd2(ReB2)3,-0.4492785399999997
1873,Sr8Fe3N8,-0.7719439407017551
1874,Pm2CdPb,-0.4330949212499995
1875,CsLu7Se11,-2.105904349669068
1876,Ba2Mn(BO2)6,-2.9541112919252877
1877,YB4Mo,-0.6194769530555556
1878,CsSm2CuSe4,-1.7280933196632544
1879,RbHg5Cl11,-1.166444750735294
1880,PdPbF4,-2.0903579516666664
1881,YAlPt,-1.1505908413888892
1882,LiHfIr2,-0.6952313058333344
1883,KSi2HO5,-2.788451309222222
1884,Pr6Ge3Se14,-1.623257650339674
1885,NaGdRe4(H2O5)4,-2.011032979016227
1886,SbOsSe,-0.3355624707812505
1887,TcI4,-0.2953952600000001
1888,Ca(AlSi)2,-0.2711350359999997
1889,Ba3Ta4Ti4O21,-3.4928049611979173
1890,Cs2Ti(WO4)3,-2.508517997733078
1891,La2CdAu2,-0.7451426080000004
1892,Eu(Ag2Sb)2,-0.3646888488095235
1893,Ta7BiO19,-3.197825858333334
1894,Rb3InCl6,-1.9788609462499998
1895,Mn2AsHO5,-1.8777370500957855
1896,Tl2Mo4O13,-1.84823902508772
1897,Tb2CrSbO7,-3.044907299999999
1898,YSiPt,-1.1968584188888893
1899,Nd2(Al3Rh)3,-0.8156833764285716
1900,ZnMoN2,-0.4482882925000009
1901,CsEuCl3,-2.604026183586206
1902,AgSbS2,-0.4417737657291667
1903,EuTiO3,-3.5577356616666664
1904,KSc(SO4)2,-2.5110084870208325
1905,NdDyFe14B,-0.08596364774509666
1906,Na3InBi2,-0.2801147871647511
1907,PmEuPd2,-0.7226024406250007
1908,SrGaSi,-0.4378168113888889
1909,GdAl3Ni2,-0.6444491272222221
1910,Pm2MgCd,-0.20810562124999965
1911,ZnCrFeO4,-2.0129279099999997
1912,Dy2Ge5Rh3,-0.7830466119999997
1913,Nd4Zn3Au5,-0.689003324166667
1914,BaLaCuS3,-1.9668544373958337
1915,HoCdHg2,-0.3563504849999999
1916,Sc9Te2,-0.5282365304545441
1917,Mn(BW)2,-0.41418075225287365
1918,H12PdC2(N3Cl2)2,-0.6202342191000014
1919,Zr2TcNi,-0.3890664949999998
1920,UGa5Pt,-0.44231334678571393
1921,MnCr2O4,-2.337050971133004
1922,H7AuN4O15,-0.9360419759259258
1923,NaIn3,-0.07481192163793127
1924,Rb14Si10O17,-2.187559947256097
1925,CaMgNiH4,-0.505716038928572
1926,V3S4,-1.3006393567857149
1927,Mg17(As3O16)2,-2.6322908316363636
1928,K2B4O7,-2.7748869775128204
1929,Dy2(GaNi)5,-0.566279466180555
1930,Be4AlNi,-0.2912396733333337
1931,LiTl2InF6,-2.5969169464999995
1932,Tl4V5CdClO15,-2.0370045822435903
1933,Tm2(Ga3Ir)3,-0.6503280679166663
1934,Mg7P2(HO2)8,-2.432726510050505
1935,OsPbO3,-1.4005510940000008
1936,Ba2CdPb,-0.4877265325
1937,Cu2WSe4,-0.6021166884821432
1938,K2TeSe3,-0.9494594259218753
1939,Hg(PO3)2,-2.1997577878240744
1940,Zn2PtRh,-0.5125788624999998
1941,SrGeAu3,-0.5198090673333333
1942,Sm2NiB10,-0.5294804032051275
1943,NiRhF6,-1.9953986018750003
1944,KSe,-1.178439805171875
1945,Y2InCu2,-0.39375244766666667
1946,Rb2SnF6,-3.0331791127777783
1947,MnTl2H2OF5,-2.136564718599791
1948,Th(PO3)4,-2.9919107274019607
1949,Cs2MgSn3Se8,-1.017306233186576
1950,V2Pb4O9,-2.004045117333333
1951,AcMg,-0.07498890624999976
1952,KAs4IO6,-1.6663153665000003
1953,Rb3P3H5N,-0.4378710259375005
1954,PrGa3Pt,-0.7259855854999998
1955,Pt(OF3)2,-1.1552667655555555
1956,Hf2TlC,-0.6300005620833335
1957,LiVF4,-3.2207911222222223
1958,YBO3,-3.5307837298333338
1959,Pu2IO10,-2.0358166203846157
1960,BaVCu4P4O17,-2.280130394938271
1961,Na4Mn3P4O15,-2.5883218654166664
1962,LaGe2IrRu,-0.7662642020000007
1963,LiNd(WO4)2,-2.642081579444445
1964,NdSiPt,-1.1037362483333328
1965,GdMnB4,-0.6251179978496175
1966,UB2Ir3,-0.5119851397222229
1967,AlSb2Te2BrCl4,-1.2368980740000008
1968,AsPbF7,-2.5612429897222224
1969,Mn2GeRu,-0.1888774689655186
1970,MgH12(NO6)2,-1.3089055799999996
1971,Th2Cu(PO4)3,-3.1675027949999994
1972,Hf6Co16Ge7,-0.4772655391379317
1973,Hf2CoP,-0.9271706320833335
1974,CaLaAg2,-0.32435603708333316
1975,Yb4Sb2O,-1.8684239264285718
1976,Ba4Ce(RuO4)3,-2.5509236153333337
1977,CaZnSn,-0.5168031633333333
1978,YInRh2,-0.7306458341666664
1979,Li(Fe3Ge2)2,-0.16761400121212297
1980,Na3TmBr6,-2.012649377632184
1981,Na3Eu9B8O27,-3.0337120115529466
1982,Na5Lu(MoO4)4,-2.334341396836871
1983,Ba2LaTa(CuO4)2,-2.7777323332142854
1984,K2NaBP2,-0.3918356372308433
1985,Dy2CO5,-3.2631743518750014
1986,TbIr2,-0.8187302249999995
1987,KBOF2,-3.0929355557666667
1988,Rb3GePSe7,-0.9536426231032991
1989,Ba2Ni(PO4)2,-2.9182890722435904
1990,Hf(MoO4)2,-2.5197870580303037
1991,Cs3Mo2Cl9,-1.8092595599137928
1992,Ti4Tl2O9,-3.005848443333334
1993,In2(SeO4)3,-1.3730301171783084
1994,DySbO4,-2.8685117512499994
1995,Cs2LiDyCl6,-2.4909948709195406
1996,Sr4IrO6,-2.6432003960606063
1997,Dy(NiGe)2,-0.6896087399999999
1998,CsMo2P2O11,-2.3890876741936067
1999,Zr5CuSb3,-0.7486174372222223
2000,Th(BRu)2,-0.5849653186666657
2001,Cr2FeO4,-2.180389102142857
2002,Ta3Ge,-0.2750879028125013
2003,CsSmCdTe3,-1.3071466138218388
2004,KLaTe2,-1.7036615045000003
2005,PWO4F,-2.544541800833333
2006,Pm2TlAg,-0.3303687437499998
2007,Nd(AlAu)2,-0.7472116579999998
2008,MnPO4,-2.4423974268773954
2009,HfSiO4,-3.655534863333333
2010,V4Pb3O3F19,-2.796287135086207
2011,Ta4AlC3,-0.5752962068750005
2012,PbF2,-2.682395368333333
2013,CoAsSe,-0.5332964978645846
2014,YAl2Ni,-0.6469080216666665
2015,K2Zr3OF12,-3.8644583367222225
2016,Dy2Te3,-1.6616092299999998
2017,Cr3Ge,-0.1119359849999988
2018,Sr3RuN3,-0.6887017599999997
2019,NdFeO3,-2.7764093670000003
2020,SrP2(XeF6)3,-2.3213131693055558
2021,SmCo5P3,-0.8069169933333337
2022,HgSeO4,-0.9659431037239591
2023,SrB8O13,-2.9380961690340914
2024,NdSb2Pd,-0.9447021787500001
2025,RbAlH4,-0.3196853420833339
2026,Ce3Ni2B2N3,-1.2322321468333328
2027,TbDy3(FeCo)4,-0.1566619083333336
2028,SiB3,-0.0402289531249993
2029,Yb2Ga,-0.3504328291666665
2030,ZnH6(SO4)4,-1.6197816799074074
2031,LiLa2S2O8F3,-3.029859566692709
2032,Ca5P3O12F,-3.421107072261905
2033,Rb2UF7,-3.5718646739999995
2034,DyCuGe,-0.6874346350000001
2035,Ca(CoSi)2,-0.5917249439999999
2036,Ho4NiB14,-0.6193734083333325
2037,Pr2Nb2S7O30,-2.265767789557928
2038,ZrCuGe2,-0.48628001249999997
2039,V2GeC,-0.4845090287500007
2040,YOs2,-0.29603739805555546
2041,Sr2GdTaO6,-3.564721317833333
2042,CsNa2H3(SO4)3,-1.9286123039480707
2043,PuB4Mo,-0.5196379727777772
2044,NaSmGeO4,-2.832611444507389
2045,La(AuF4)3,-2.1466188471875003
2046,GdZnGe,-0.6764154991666658
2047,Hf6Al16Rh7,-0.790886044827586
2048,DyPaO4,-4.189796626666666
2049,CuP2,-0.11217951972222255
2050,Pm2CdSi,-0.37422281374999944
2051,Cd5Au3,-0.16653619687499988
2052,ErMgZn2,-0.3359701100000003
2053,CsTmMnSe3,-1.5597129815933297
2054,Ce6S4BrN3,-2.0949009492857136
2055,HfMo2,-0.17089821166666752
2056,TbZnRh,-0.72852528
2057,La2TlAg,-0.3414959550000001
2058,Ca2AlP3Pt7,-0.9116091615384625
2059,CsLa(SO4)2,-2.582762896390085
2060,K2Mg2Be3F12,-3.5686746457105265
2061,PbBrF,-1.9927042683333338
2062,Mg149Si,-0.024126980399999904
2063,FeMo3PtN,-0.3487800624999989
2064,TaTc,-0.49769454500000165
2065,TaCoB2,-0.6323309095833327
2066,Hf3ZnN,-0.9629369550000006
2067,V2FeGe,-0.29936091375000107
2068,KGaPO4F,-2.7203094611041667
2069,LaGaNi4,-0.41489913875000006
2070,Cs2Nb4O11,-2.9573150484330633
2071,La(AsIr)2,-0.8117512550000001
2072,Ce2Al16Pt9,-0.9988757233333332
2073,Sb2Te2Se,-0.4536109664687501
2074,Eu2Cu6P5,-0.5037686874358973
2075,Mg4Nb2O9,-3.099919700666667
2076,Mn2ZnTe4,-0.4749510872660098
2077,Y4InIr,-0.5840395456944437
2078,Rb2TlAu3,-0.27699612888888875
2079,CsTbS2,-2.071137896045258
2080,Nd3SiAgSe7,-1.6116318877560765
2081,BaSrV4(NiO4)4,-2.2675560096794865
2082,GdCrB4,-0.6279025936111111
2083,Gd2(FeB)7,-0.4785044757291672
2084,AuCl2,-0.6599139491666669
2085,Mg3Bi2,-0.19676072599999977
2086,Na4Al3Ge3BrO12,-2.5991391629872553
2087,La3BWO9,-3.388183419940476
2088,TbCdNi4,-0.3484755933333332
2089,LiCoSbO4,-1.897412948690476
2090,LaScO3,-3.9505633779999996
2091,Nd(Re2Si)2,-0.42855333249999966
2092,Nb3Se4,-1.134122576339285
2093,V20Ga2Ge3S40,-1.1784088671538466
2094,Ni,0.0
2095,PmCd3,-0.30371250437499997
2096,Pr4MgNi,-0.14818869083333355
2097,K2UMo(IO6)2,-2.010489292416667
2098,Nd(Ni2B)6,-0.39570149052631476
2099,TiFe,-0.4208365316666658
2100,CuSnRh2,-0.3484171737499997
2101,Lu3Ge3Ir2,-0.9281083368749998
2102,YbYRh2,-0.756023971666667
2103,Ca3(AlN2)2,-1.2921500745833336
2104,Y7C2I12N,-1.5506173057575765
2105,K2Na4Be2O5,-2.0190970670928383
2106,YbSmCd2,-0.37007066375
2107,Lu(MnGe)2,-0.4525793511724146
2108,Li6Y(BO3)3,-2.8291567032456144
2109,HfFeSi,-0.7469964491666671
2110,KLaO2,-3.0098056045
2111,Ga8Sb7Se8Cl29,-1.2906995061298074
2112,Li2MgHg,-0.2787254329166666
2113,HgF2,-1.7068606
2114,Nb9PO25,-3.0149837065238096
2115,PrPS,-1.7144716892361107
2116,MnP2PbO7,-2.5136220915543364
2117,Dy2Mo3H2Se2O17,-2.159756721141827
2118,SmAgAu2,-0.5861559004166672
2119,SmZnRh,-0.6844561274999995
2120,Sn4OF6,-2.404748521136364
2121,VAuS2,-0.9561903315625004
2122,La3(ZnPt)4,-0.9010810350000004
2123,GdCoC2,-0.32033049374999756
2124,Pr3Rh4Pb13,-0.2893912727500002
2125,NaLi2Sb,-0.623673753304598
2126,Gd2Si4CN6,-1.3488218046153844
2127,RbIn3O5,-1.9287116430555562
2128,NaSbF4,-2.834577600675287
2129,CaZn2(PO4)2,-2.7058475151282044
2130,Rb5Nb3OF18,-3.3685892026851865
2131,SnP2PbO8,-2.4496090049305557
2132,CaAs2(XeF5)4,-1.937409384259259
2133,H2O,-1.2816299224999999
2134,AgAsF7,-2.110936820740741
2135,Mo2P3O11,-2.4585090103125005
2136,K3Ca(PO4)2,-2.74689883897619
2137,Y3ReB7,-0.6059396031060593
2138,K2TeI6,-1.0106644517777776
2139,Rb4Cu5Cl9,-1.4188719961111107
2140,LiCo2Si,-0.40248677083333284
2141,AsHPbO4,-1.6481883042857137
2142,LaNi2B2C,-0.4419379488888886
2143,Th(As3Os)4,-0.3700847794117659
2144,Ce20Mg19Zn81,-0.2643664752499996
2145,K3FeO3,-1.6437180741428574
2146,Na5TlSn3,-0.19057307234355036
2147,LiAlTe2,-0.925177128333333
2148,Ca9Zn4Sb9,-0.8896565311363634
2149,NaAcTe2,-1.4692173547629315
2150,GdErRu2,-0.3198926625000009
2151,Pm2RuPt,-0.5976686349999998
2152,SrMn(SeO3)2,-1.9992588619285208
2153,Ba3PrIr2O9,-2.467742824000001
2154,DyZnSn,-0.589106921666667
2155,HfCuSn,-0.26910824999999977
2156,Rb3Nb6SBr17,-1.5072322441898143
2157,CsTb2Ag3Se5,-1.3391602167863441
2158,Ce2ThS3,-2.247891873229167
2159,Sb3(BrF8)2,-2.326636893571428
2160,TlAgO2,-0.8218405749999995
2161,CaCo2Te3(ClO4)2,-1.7485917124999997
2162,La7P12Pd17,-1.0155491140277784
2163,NdP5O14,-2.8238317493333325
2164,Y(CoSi)2,-0.8029817833333326
2165,Lu2Co7,-0.20526097777777766
2166,BaHg2,-0.5057808533333334
2167,CrPd3,-0.07442674999999976
2168,NdBPt2,-0.9264845439583335
2169,SmMg,-0.09961510750000002
2170,CeCo3B2,-0.4907044480555551
2171,PmPrHg2,-0.4719003956250001
2172,Pm2AgIr,-0.4880343204166664
2173,NaFeF4,-2.7941033265086204
2174,VBr2O,-1.6076525450000005
2175,K2Mn3V2CO11,-2.2765202257785853
2176,Ti10(GaSb)3,-0.5106086859895829
2177,Rb(FeAs)2,-0.26916470950000077
2178,Cs2PO3F,-2.75450390631363
2179,K2Na4ZnSn2,-0.16622050441187775
2180,LaAg2,-0.2987618611111114
2181,Cs2NaRuF6,-2.6155898832413795
2182,Cd4As2Cl3,-0.8109810133333334
2183,Na6Ge2Se7,-1.0637564467144396
2184,ErGa2Cu3,-0.36125307416666647
2185,Pd3S,-0.33951602828124994
2186,PmGdIn2,-0.4797670368749998
2187,K5GaSe4,-1.2806175285624994
2188,NaTeH6O6F,-1.5331653439367823
2189,Sr2H6Ru,-0.7024599731481476
2190,Mg2AgPt,-0.5761871891666663
2191,CdBr2,-1.2385409116666668
2192,Li2MgTl,-0.21266869750000006
2193,Ba2V2O7,-2.9225407811363637
2194,ErCuSb2,-0.6701189687500007
2195,ScCo,-0.37063166500000033
2196,LiAg2Ge,-0.16372422791666663
2197,Na2U2O7,-3.277717805736677
2198,LiCd3,-0.16432951583333333
2199,Sr2Li3NbN4,-0.9985890548333337
2200,Sr3MgRhO6,-2.6417168422727273
2201,K2Pb(SO4)2,-2.1212486424807695
2202,Pr3(AgSn)4,-0.5598703656060612
2203,K2CdSnS4,-1.1007026766874999
2204,CeB2C,-0.5277888708333324
2205,Y2C(NO)2,-2.4617580190476187
2206,Mg(BrO3)2,-0.9397161850000002
2207,Sr2HN,-0.7452424483333329
2208,Tb11In9Pd4,-0.6670802254166665
2209,Li7MnN4,-0.6984286909386969
2210,K3InAu5,-0.32807449266666644
2211,Cs2Th(Si2O5)3,-3.3094065202442535
2212,Ba3(SnAs2)2,-0.821144015
2213,TmLuRu2,-0.4447618716666657
2214,Na6ZnSn2,-0.1597267410344831
2215,Ga2CoO4,-2.026136891071429
2216,LaTl(PS3)2,-1.1449111286250002
2217,NaBiTeO5,-1.7328828876939664
2218,Ti2GaC,-0.7590894360416671
2219,Pr(BRu)4,-0.4360204451851849
2220,Sr2IrO4,-2.3660013054761913
2221,NaBiO2,-1.7202619228879303
2222,Ca3(GaN2)2,-0.8962971588888888
2223,Re2P,-0.29132280527777726
2224,PrGaSi,-0.6732652275
2225,AlP2H12N3O8,-1.571626921121795
2226,La6Ni6P17,-0.9239659067816084
2227,Y3Co,-0.1442045937499996
2228,K6Sn3As5,-0.4337126796785711
2229,AlP2I9,-0.5781630380555557
2230,B3Pb10Br3O13,-1.8640155053448284
2231,Cu3BiSe2ClO8,-1.212203975645833
2232,Sr(H2O3)2,-1.3803298010606062
2233,TbSiRu,-0.7944542374999995
2234,Cu2PO4,-1.7419204104761903
2235,BaCa(PO3)4,-2.99270071087963
2236,KSbCl6,-1.493477381
2237,Cd2GaAgS4,-0.8225898695833331
2238,Rb2TaCuS4,-1.3500803534374999
2239,KSi2BO6,-3.053980482466666
2240,LiYSe2,-1.9371241211718746
2241,Y(BIr)2,-0.7436483850000002
2242,ErAl2Ni,-0.6488156025
2243,K2CuAs,-0.3482022652500003
2244,MnCo2Ge,-0.2621881032327593
2245,Na2Cd3Si3O10,-2.4913917546168594
2246,YB4Rh,-0.6027658093055557
2247,CsCuS4,-0.7699304913218393
2248,CsGd(CO3)2,-2.5378914977931033
2249,WSe2,-0.8722127332291668
2250,KHo(CO3)2,-2.5790939533000006
2251,ScSiPd,-0.9568760416666654
2252,BaTi2As2O,-1.6983579202777772
2253,AgI,-0.47051333583333355
2254,U4Re7Si6,-0.4491889297058833
2255,Na2SeO3,-1.8016063338245332
2256,Y4Zn5Ge6,-0.5635557554444441
2257,PrZrF7,-4.211735534722221
2258,DyIn,-0.4490616850000002
2259,MgZr4(PO4)6,-3.199968335428572
2260,GdInPd,-0.8101918355555568
2261,K2Cd3SnAs4,-0.31114365610000017
2262,Al23B50,-0.054580308881278974
2263,Tm3Pd4,-0.981440562857143
2264,NiBi3,-0.024311624375000562
2265,HfFe2,-0.34567171333333374
2266,Mn3WO6,-2.1339770058793106
2267,Tb2Ge2Ru,-0.7958992409999993
2268,Ta3VSe6,-1.1063221254062499
2269,PrSb,-1.2812269474999995
2270,Ca2NbN3,-1.2387136974999997
2271,Cs2CaH4,-0.41983665369458123
2272,TeH9SN2O5F3,-1.370035525267858
2273,CdS2,-0.6594163837499997
2274,NaBiF6,-2.4838149101939657
2275,BaU2V2O12,-3.126559185882353
2276,La4MgRu,-0.22028943541666676
2277,LuCdRh2,-0.6337744649999992
2278,LiSc(WO4)2,-2.6289598052777783
2279,Bi2(MoO4)3,-1.8971895736764717
2280,Ho11(In3Ge2)2,-0.649646194523809
2281,CeUN2,-1.610850631249999
2282,Ba2LuNbO6,-3.506347951
2283,LiAuF6,-1.765755674791667
2284,KAg(NO3)2,-1.0565451064666669
2285,RbBaPS4,-1.479867585476191
2286,Ta3I7,-0.7413739737500002
2287,Na2S5,-0.8525290441040637
2288,ErMgIn,-0.3609671711111113
2289,Sr3Pt2,-0.7494344859999998
2290,TbCrO4,-2.7787706633333342
2291,AuBr3,-0.5570015593750002
2292,Cs2BeCl4,-2.174085111908867
2293,ZrNiF6,-3.4035374918750003
2294,GdCuAs2,-0.8334471287500005
2295,RbLiMoO4,-2.257653568690476
2296,Ca5Au3,-0.6875218106249998
2297,Al4Bi2O9,-2.8578853940000006
2298,La(CoSi)2,-0.7034702469999992
2299,Ba3Si6N4O9,-2.7461604275000013
2300,Dy2MgAl,-0.26902252250000025
2301,PrCoGe,-0.5933950283333331
2302,TaNbMo,-0.07890560000000117
2303,Ho2Be2GeO7,-3.2899827466666665
2304,Hg(SbO3)2,-1.621049171666667
2305,LaNi3Rh2,-0.34405953916666593
2306,NaTl,-0.1126779624425287
2307,Th7Ir3,-0.6633055150000005
2308,Ho2CdPd2,-0.8116652899999991
2309,PrPPd,-1.233408646111111
2310,FeRh,-0.041342895000000546
2311,Li3Tm(NO3)6,-1.435155553720239
2312,MnSnPd2,-0.4111345182327586
2313,Ti5CoSb2,-0.5003253914583334
2314,NaInI4,-1.0371936594252873
2315,Al5BO9,-3.3666107872777786
2316,Y3(GeRh)2,-0.9273060060714288
2317,TlPPt5,-0.2300268423809523
2318,Th5Bi3,-0.41339935562500063
2319,HoB2Os,-0.5909847927083325
2320,Li5Ti6FeO16,-3.068338125416666
2321,GdSiPt2,-1.133237743125001
2322,Sm14Ag51,-0.23466568199999993
2323,La4Mg3Ag10,-0.30725584392156857
2324,Ho3C4,-0.33379648528571365
2325,MnCu2SiS4,-0.756548492553879
2326,Rb3B(SO4)3,-2.2137771467653513
2327,LiMg149,-0.027363096622222163
2328,NdZnSn,-0.6437872075000003
2329,SmFeSi,-0.5730072783333332
2330,Li4SeO5,-1.9509335525677087
2331,BaSm2CoO5,-3.079526547777778
2332,Ca2B2O5,-3.242779313148149
2333,Li4NCl,-1.0241317097222222
2334,K3Cu5O4,-1.0979139580416668
2335,YPO4,-3.484510136666666
2336,K2HoF5,-3.7765799023125
2337,Lu2CdPd2,-0.8336416019999995
2338,SrZn,-0.20881719458333325
2339,HfGaRh,-0.8205709647222221
2340,Sc4OsCl4,-1.7347614411111119
2341,Tb9Al5S21,-2.022913015446428
2342,Sc(PO3)3,-2.974468438846155
2343,Th(GePd)2,-0.8136430500000003
2344,HNO3,-0.8911570042500003
2345,CaNdHg2,-0.54781732
2346,Ho4Ge9Ir13,-0.6633505763461537
2347,KNb2PS10,-1.0749284064345244
2348,Ca2AlZn16,-0.18852267473684212
2349,Li(CoGe)6,-0.26195539794871847
2350,Sr2GdBiO6,-2.8274464323333333
2351,Pr5(CBr4)2,-1.835825854333334
2352,Rb5Tl9,-0.11840619125000003
2353,LiH,-0.49553018416666683
2354,NbNi11(BO5)4,-1.8616179076851849
2355,Yb(ZnSb)2,-0.5327571360000001
2356,NaTbGeO4,-2.8694564662931037
2357,Er3ReB7,-0.6480125394696976
2358,Cr3B7IO13,-2.576920988923611
2359,Pd4S,-0.2783099216249994
2360,EuZn5,-0.2610246158333336
2361,RbCdGeAs2,-0.30406856650000014
2362,Mg5Nb(BO4)3,-3.0592296059523805
2363,Pm2AgRh,-0.4726715279166669
2364,KMnF4,-2.9534512693218393
2365,HfPOs,-0.8827977538888897
2366,EuZnAu,-0.6218019966666676
2367,SrNi3Ge2,-0.44588323694444415
2368,NdAl3Ni2,-0.6105145150000002
2369,KSr2Cd2Sb3,-0.759827181416667
2370,Mg149Pt,-0.03685068773333323
2371,Y3Sc2Al3O12,-3.8082423638750003
2372,Np3Se5,-1.4742001456835938
2373,Cs2NaCeI6,-1.675995445741379
2374,Sc2V3Si4,-0.7171166488888885
2375,La3(NbN3)2,-1.4949662631818177
2376,YSiAu,-0.8038155888888886
2377,RbCaCl3,-2.6132386055
2378,Pm2S3,-2.322306783875
2379,Mn2Bi3Sb3O14,-1.9107667434482765
2380,FeH10N2Cl5O,-0.9443617657894737
2381,Bi,0.0
2382,Sm5Co2,-0.10396134499999984
2383,LaHgPd,-0.721601641111111
2384,Sr(CoP)2,-0.8342433066666672
2385,PPbSe3,-0.5984093650729164
2386,GaPS4,-0.7510770722222228
2387,Ba2InSbO6,-2.5364892170000006
2388,RbUCrNO9,-2.1690666973076933
2389,KVF4,-3.2296120169583333
2390,TbMn2O5,-2.651355032920259
2391,TlPO3,-2.259928703833333
2392,Dy5P12Ru19,-0.8638447187499989
2393,Rb2GeF6,-3.0447606027777776
2394,HoMoClO4,-2.6869870300000005
2395,LaSi3Rh,-0.838475983
2396,K2PtN3(ClO2)3,-1.1946890437333328
2397,TaCoAs,-0.41975750166666614
2398,Ca4In3Au10,-0.6080068052941177
2399,TbInAu,-0.744728133333333
2400,SmAg(WO4)2,-2.368890836388888
2401,Ce(Al2Cu)4,-0.30684476192307714
2402,ErTaO4,-3.743609462499999
2403,GdSbS,-1.6393191852083326
2404,Pr3RuBr3,-1.483689956071428
2405,Th2S5,-2.0927926875892857
2406,Gd3CuGeSe7,-1.5670860884505207
2407,RbPSe6,-0.6953468937369793
2408,K2Be2(SiO3)3,-3.0714384028750006
2409,Ca2TlCd,-0.4095097083333332
2410,PmCu3,-0.1255385481250002
2411,Y7Rh3,-0.5963533351666669
2412,CsCaTa6Cl18,-1.9019558718435017
2413,LiTm2Rh,-0.5362040016666665
2414,CsCu2Br3,-1.0651165292385059
2415,Zr4GeSb7,-0.6741354762499997
2416,EuB6,-0.47133834285714266
2417,KPu2F9,-3.7101693717083335
2418,RbAu5,-0.18988438125000032
2419,K8Zr(MoO4)6,-2.3100150468974365
2420,La(SbPd)2,-0.9720354380000004
2421,Er2Mg2Ru,-0.3004316509999995
2422,Yb2GaNi2,-0.5165120715
2423,LiEu4(BN2)3,-1.249281897916666
2424,RbGd2Cl7,-2.687716666