,formula_pretty,formation_energy_per_atom
27587,Sm(Cd10Ni)2,-0.09322058586956518
27588,LuSnRu2,-0.4401919187500001
27589,YP,-1.6256158000000003
27590,Ni3(PO4)2,-2.1116314074358984
27591,Sr(ErS2)2,-2.417030194166667
27592,MgAu,-0.6070851799999999
27593,PrInCu,-0.3742699894444452
27594,Tm2B6Ru,-0.7231552362037029
27595,ReO2F3,-2.4006733106250002
27596,LiDyHg2,-0.4427187058333335
27597,CaAcMg2,-0.0912514181249997
27598,NaI(OF)2,-1.8223149352586212
27599,Ag5GeO4,-0.820644883083333
27600,Cs2TlAgBr6,-1.3561169110862068
27601,Nd2Te3MoO12,-2.353777662916668
27602,Sm(PRu)2,-1.0287853323333338
27603,Zn2(PS3)3,-0.6809356627232148
27604,Na2SrV3O9,-2.5861158468180085
27605,TmTaO4,-3.7512626327777774
27606,Np(NiGe)2,-0.3616180157499997
27607,Er2Ge5Rh3,-0.7600735059999998
27608,LiP,-0.5232530195833336
27609,Ba3Cr2O8,-2.6295987938461542
27610,Ho2RuRh,-0.6563306862499996
27611,MgSnPd2,-0.6797298812499992
27612,BaGe2S5,-1.1466212597656247
27613,HfC,-0.9398176399999993
27614,EuInO3,-2.619530886
27615,LuSnIr,-0.8538777105555558
27616,RePO6,-2.270586749166668
27617,AlFeRh2,-0.5959266374999999
27618,DySi3Ir,-0.7814701760000006
27619,TmMoClO4,-2.6869174316666666
27620,Co(BiO3)2,-1.3386758368518528
27621,Nd5Pb3,-0.5386101075000003
27622,Na3EuTi2Nb2O12,-3.0636510375660917
27623,Cs2UAs2O9,-2.4711257588115765
27624,Zn61Pd8,-0.18224553782608688
27625,BaNi2(PO4)2,-2.5377746705128215
27626,YSiNi4,-0.6036034227777769
27627,Ti(ClO4)4,-0.7699863446825402
27628,Cs2SmAgCl6,-2.2055983677528728
27629,Li(CoO2)2,-1.5136495138690478
27630,K3Lu(PO4)2,-3.006382534690476
27631,Mg2BeB2Ir5,-0.5204263263333331
27632,SmTmHg2,-0.46739914291666684
27633,Sn5(BRh3)2,-0.4517072187179477
27634,Ca(BO2)2,-3.128601376547619
27635,CaU3Ti8O24,-3.5823816657407415
27636,SrHg2,-0.48815491555555557
27637,Ca(CoGe)2,-0.4737103519999998
27638,TbIn3,-0.4202193849999998
27639,Fe2Re3,-0.011278669499999694
27640,HoMgPd,-0.6957008322222215
27641,YbPd2Pb,-0.6582163300000001
27642,SnHgP14,-0.006219478072917006
27643,RbFe2S3,-0.9366314611458334
27644,BaAu2,-0.7404464866666665
27645,TbGaPd2,-0.8954289693749997
27646,CaNdCd2,-0.3636555399999999
27647,TmAsSe,-1.5491270171701395
27648,Tb4CdRh,-0.48427615666666607
27649,Li2HgAu,-0.45926386291666654
27650,Cs4Cu3F10,-2.400963697454362
27651,ZrTl2PbS4,-1.129595640520833
27652,Ho2GaCo2,-0.4270985435
27653,Bi2Mo2Se2O13,-1.6870204668256576
27654,ThCoH4,-0.5023613183333341
27655,Eu3B2(O2F)3,-3.3092756754166675
27656,LaP5O14,-2.8403131663333325
27657,Na2Mo2Se2O11,-1.7895113401641731
27658,Li3Fe2(PO4)3,-2.507173193
27659,NaH8O5,-1.307164806717981
27660,Ba5Re3IO15,-2.738578087083333
27661,Ti2TcNi,-0.479781959166667
27662,Dy3AlN,-0.9900153070000002
27663,ZrGe,-0.8050982387500003
27664,TmAlZn,-0.44436334388888926
27665,K6Na3AlSb4,-0.49623422590394106
27666,PrNiO3,-2.409582056999999
27667,BaCuN,-0.46847353222222193
27668,FeH2SO5,-1.683176736458334
27669,Zr5ZnSb3,-0.7823612227777785
27670,Ce3Ge13Os4,-0.3530952492499992
27671,Li5SiP3,-0.591063026296296
27672,TbDyIn2,-0.46274976000000034
27673,LuNiB4,-0.568153793194444
27674,GaGePt6,-0.3844083715625004
27675,Ba4PtO6,-2.4677279295454544
27676,Ti3PdO,-1.4549544309999987
27677,PH8N3O2,-0.9416284261309522
27678,Rb2P3,-0.4325792500000006
27679,TbAl2Ni,-0.6321612700000001
27680,Na2GeO3,-2.139358738850575
27681,GdB2Os,-0.5267611445833342
27682,In12Ga4Ir2O15,-1.652764832424243
27683,Rb2AgRhF6,-2.266954716666666
27684,CeSb,-1.1543795875000002
27685,Bi13Mo6(AsO14)3,-1.830820584296875
27686,La4CdNi,-0.2469391958333329
27687,Cs3Tb2Br9,-2.2526816740209354
27688,CaP4O11,-2.7869708966145836
27689,Na10EuSn12,-0.2739413874137933
27690,Sr2CeIrO6,-2.842421785333334
27691,Pr(MnGe)2,-0.4569661521724143
27692,PCl5,-1.085693530138889
27693,Sc2Sb,-0.8467905566666664
27694,Sc4Co4Ge7,-0.6305634013333342
27695,PmMgRh2,-0.5932693018749999
27696,MgPaTc2,-0.09247722000000014
27697,Zn2BrN,-0.60244375625
27698,Eu3GaP3,-1.0200811575000006
27699,NaTiPO5,-3.0011478035272994
27700,NdCuSe2,-1.4742994299218752
27701,Ca2BN2Cl,-1.7518232615277771
27702,Yb2ZnGa,-0.43707746937500014
27703,Cs2Ba2(CO3)3,-2.45592810661638
27704,Li2CuSn,-0.3297365304166666
27705,SbAsF8,-2.5586103689999993
27706,SrH6Cl2O11,-1.172629271395833
27707,Nd4Os6O19,-2.259844214655173
27708,Sb4Au(Xe2F11)2,-2.1472988853225807
27709,U2Co3Ge,-0.369738970833333
27710,Rb3Cd(BO2)5,-2.600306750570176
27711,Tb14(P8Ir11)3,-0.9840443035211264
27712,Cs2NaInF6,-3.0032897607413793
27713,Co6Te3(ClO6)2,-1.4270323686956512
27714,Rb2CdSiO4,-2.3170313853124997
27715,Ba2HoNbO6,-3.470264298000001
27716,Ba2InBiS5,-1.5216714217361111
27717,RbTb2Cl7,-2.6905487115
27718,Sb2O3,-1.7517375020000003
27719,CeSbIr,-0.8939906083333339
27720,Al6Cd4SO12,-2.718810100135869
27721,Cs2RbGaF6,-3.059080924586207
27722,Nd6Mg(GeS7)2,-1.890718758423913
27723,PmNdIr2,-0.5901602268749997
27724,RbDy(MoO4)2,-2.5476149437500006
27725,LaWN3,-1.2223762499999993
27726,ScMnSi,-0.6005882898659023
27727,Lu3Os,-0.33712884687499933
27728,Nd(NiSb)2,-0.7176171149999995
27729,Dy5In3,-0.3813498275000007
27730,UTe(PbO4)2,-2.284697086249999
27731,Li2PdO2,-1.648949463333333
27732,Nd10As8Au3O10,-2.4125244822580645
27733,Ca5Co3(SiO4)4,-2.992425806964287
27734,Na2(ReS2)3,-0.9984371099412228
27735,ScBr3,-2.068745611875
27736,Ho2(Ga3Co)3,-0.48501867124999976
27737,Sc5Re24,-0.22462562293103397
27738,ThIN,-2.035434400000001
27739,CaSiAu,-0.6215831333333336
27740,AsClF8,-1.8572768304999996
27741,NaFe2PbF9,-2.7265679441578254
27742,Ca5(SnAs3)2,-0.86910997
27743,YbTaRu2,-0.24951665250000055
27744,PbWO4,-2.0541413358333336
27745,Rb2P2Pt,-0.512984810333333
27746,Er11Sn10,-0.7052012664285714
27747,SF4,-1.997507208375
27748,NaRh(SO4)2,-1.7574707769001432
27749,RbU3TiTe9,-1.016398122202381
27750,KRb2ScF6,-3.5723641613
27751,BaSr3(CoO3)4,-2.0322104284999996
27752,Lu2IrRu,-0.77703672125
27753,KHgSb,-0.42492488933333333
27754,ZrInRh2,-0.7217881874999996
27755,SmB6,-0.4549984671428565
27756,HfRe2,-0.39642510583333507
27757,KAg3Te2,-0.5201317155000004
27758,DyP2(HO2)5,-2.239318461759259
27759,TiPOs,-0.8313367305555567
27760,SrCu9Ge4,-0.15595211404761905
27761,Ce3CI5,-1.3882956927777788
27762,K2Sn3O7,-2.0893414390416667
27763,Cs3CoCl5,-1.9030265393103447
27764,BaV2(CoO4)2,-2.290699521923077
27765,Rb3HoCl6,-2.50571902575
27766,NpF3,-3.798130807812502
27767,Ba2InSbSe5,-1.4314353290798612
27768,CrHSe3O8,-1.4544380115024045
27769,Rb3Er(PO4)2,-2.9709125013690474
27770,Rb2LiTlF6,-2.7332991846666665
27771,HoGa,-0.6283525512499999
27772,ThSe,-1.7853912011718744
27773,Cs2EuAgCl6,-2.0671637797528732
27774,SmAl3Pd2,-0.8569303341666673
27775,FePt3,-0.17385806999999964
27776,Ca3Fe2(GeO4)3,-2.527252225625
27777,Ce6Th4O19,-4.232494618448277
27778,Zn2Te15(H3N)8,-0.448993591122449
27779,Mg8BRh4,-0.43558261724358915
27780,NbSeOF7,-2.739243443734375
27781,DyB2Ir3,-0.6945545197222222
27782,AlSiMo6,-0.28352565750000025
27783,Rb2CuSbCl6,-1.5882680834999998
27784,SrMo2(PO4)4,-2.607942365869566
27785,Ca5P3HO13,-3.22300606909091
27786,Th(MnSi)2,-0.5910014711724131
27787,NaSr3RuO6,-2.5393952128683384
27788,Sb3RhPb4O13,-1.7155844430952392
27789,Ca2Al2Si(HO4)2,-3.041107836
27790,Zr2SbP,-1.1809141283333329
27791,PmAg2Pb,-0.2939182352083334
27792,Cs(FeAs)2,-0.26335333558620777
27793,LiIr,-0.2659374166666675
27794,Tb(PRu)2,-1.0401218833333346
27795,Dy11(Mn2C3)6,-0.34078393378469335
27796,Cs3Sb5O14,-1.9593520197178684
27797,MnSnF6,-2.909971858491379
27798,Lu5(Ge5Ir2)2,-0.7327173760526313
27799,PBr2N,-0.6822543977083333
27800,ErSiPd2,-0.9926394756250003
27801,BaSiF6,-3.8410261206249996
27802,Ce(ZnAu2)2,-0.4893424307142859
27803,Ba4LaGe3SbSe13,-1.444271232521306
27804,KNa2CuO2,-1.3448539360172411
27805,GdSiAg,-0.5594534422222226
27806,Li2TiGeO5,-2.7158954927777788
27807,Sr3Y2(GeO4)3,-3.059779835416667
27808,RbSm2Ag3Te5,-1.0915007947727275
27809,Gd2MgPtO6,-2.8866614510000006
27810,BaHgS2,-1.4067872540625004
27811,Dy5CoSb2,-0.7542051862500001
27812,Ni3P,-0.44065392958333227
27813,SrMn3(PO4)3,-2.7213652884452504
27814,Sm4CdIr,-0.4762569441666666
27815,KCu4(AsO4)3,-1.4359335974000005
27816,Ti2InN,-1.1566976879166662
27817,Sm(CuO2)2,-2.047060307142857
27818,Sr2P7Br,-0.7797264656666663
27819,FeN,-0.31464321750000046
27820,Li2CuP2O7,-2.451269048194444
27821,PmErPd2,-0.8426284718749999
27822,Mn3NiP2,-0.5378012209099623
27823,K2H2RuO5,-1.6018320966000004
27824,Sm2Zn17,-0.2627796610526317
27825,Sm2(Al3Co)3,-0.5408962760714289
27826,TbMg,-0.08531859999999991
27827,KInP2O7,-2.6146359822424246
27828,Hf9NiW4,-0.16442049714285847
27829,Na3AuO3,-1.372426207450739
27830,Sr3GaSb3,-0.9508924353571432
27831,LiOsF6,-2.442211954166667
27832,Tm3Al2,-0.32693892299999944
27833,CaAu2,-0.709974323333333
27834,Pa3As4,-1.0272435107142854
27835,Ti2AlN,-1.260449857916666
27836,TiPt,-0.9203474991666676
27837,Tb2NiGe4,-0.6881404057142859
27838,Pu2SO2,-3.1241636186250004
27839,KErP2O7,-3.148634883833333
27840,YbErSe2,-2.126946356171875
27841,Ag2PdCl4,-0.8072493111904758
27842,MnFe2Ge,-0.11002159823275903
27843,Tb2Si2O7,-3.6578635372727275
27844,Pr(FeB)4,-0.4142745729629635
27845,WCl6,-1.3795251628571432
27846,PmAlAg2,-0.3078610227083334
27847,AlPPt5,-0.6015957019047613
27848,NdBPt4,-0.7728944190277774
27849,Dy2Ge5Ru3,-0.6379859540000006
27850,Dy2(Ga3Rh)3,-0.7097202841071432
27851,Cs2NaInH6,-0.19509179924137926
27852,Rb2TcI6,-0.9944027183333333
27853,Er3Ga2Ge3,-0.7063641012500002
27854,SrMgGe,-0.5352876780555554
27855,Nd3Tl5,-0.37110347520833376
27856,Cs2RbLuCl6,-2.5076414803362064
27857,PmTlRh2,-0.45673287520833306
27858,Dy(GePd)2,-0.7969306320000001
27859,Pu2B6Ru,-0.5210190916666669
27860,Ti3Zn3C,-0.44236785750000046
27861,EuSnAu2,-0.606362055
27862,K4GeSe4,-1.211424670986111
27863,Na3Fe(SO4)3,-2.0498456994226406
27864,CaPmHg2,-0.546398346875
27865,K3(PtO2)2,-1.3785572426666661
27866,Nd(FeP3)4,-0.5942932970588243
27867,GaRh,-0.6799414187499995
27868,Na2EuC(OF)3,-2.8671336943103447
27869,Ag3Te2Au,-0.2089932008333335
27870,Tb4CdPt,-0.5979495066666664
27871,Y6RhI10,-1.4785853594117655
27872,AlNi2BO5,-2.3201892974074068
27873,CeAl6Pd,-0.464718171875
27874,Tl2Cu(CO3)2,-1.4857139474242431
27875,H3BrO,-1.0313109275000003
27876,NaAuF4,-2.007668531091954
27877,Th(AlAu)2,-0.709222544
27878,Eu(FeAs)2,-0.5763016570000005
27879,Lu2MgIn,-0.2624459899999998
27880,Sm3InS6,-1.9920560536250007
27881,AlAs3S5Cl4,-1.0065209527403847
27882,Yb3CoSn6,-0.4816155960000003
27883,LuCuSn,-0.5627770949999995
27884,Y2Cr3O12,-2.37801754754902
27885,NdPt,-1.1414751125000002
27886,NdSn3,-0.5003856362500008
27887,NaPr(Si3O7)2,-3.2814172521159874
27888,SmGa3,-0.563991138125
27889,MgSnIr2,-0.33885027874999984
27890,CaCeIn2,-0.40330162875
27891,Ca2V3O8,-2.8625693223076922
27892,LiP3(WO6)2,-2.531214757685186
27893,NdPt2,-1.0381427200000009
27894,AgTe3,-0.3158108266666666
27895,Ni2Hg2OF6,-1.8983784886363635
27896,Y3Ga15Ru4,-0.5187365319318186
27897,Ba6Na2Nb2P2O17,-3.1427881429231075
27898,Ac2SiHg,-0.3787294299999999
27899,BaB4(SbO6)2,-2.611067936140351
27900,Sr2YOsO6,-2.876829639500001
27901,CaCr2P2O9,-2.8157815520833336
27902,Sc2AgHg,-0.3642288379166665
27903,K2RbBiSe3,-1.160510066504464
27904,Li3GaN2,-0.651991903125
27905,Cs3Zr7MnCl20,-2.159505246507231
27906,TaS3,-1.1766526877604175
27907,K3GeH2NO3,-1.478119861399999
27908,KNb3(TeO6)2,-2.496764648222222
27909,SmCl3,-2.6602695662499993
27910,RbAs,-0.4230592568749998
27911,Ho2Re2Si2C,-0.6004937099999991
27912,CsSbF4,-2.869307645905172
27913,KAlP4(H2O7)2,-2.4441487469305554
27914,Y(CuSi)2,-0.5690537293333335
27915,Sc2AlZn,-0.42491374249999936
27916,Sr5B3ClO9,-3.22317441837963
27917,Li2LaTl,-0.2671925812499998
27918,Er(AlFe)6,-0.3921946869230766
27919,ErAl4Ge2Au,-0.4152125074999997
27920,Li8SnO6,-2.143005662111111
27921,Ca2Al3H3O8,-2.8741202751562502
27922,Li4MoO5,-2.235319451833333
27923,Cs2GaAgF6,-2.693644966502874
27924,LuSiRh,-1.0647415933333317
27925,BaNi9As5,-0.4621342970000001
27926,LiCrPO4F,-2.7578040973958338
27927,CaNd2Mn3O9,-2.8254818082528743
27928,SrFeF5,-3.3362337188095244
27929,YCu2,-0.26105899888888945
27930,NiH12(NO6)2,-1.1614452533333333
27931,Ho(Ni2B)6,-0.39157365184210474
27932,Lu2CoCu,-0.2745819562499996
27933,HfTaRe2,-0.40023436999999973
27934,KMn2O4,-1.9677587855517242
27935,RbReCl4,-1.519843899305555
27936,Rb2PH3SeO8,-1.8761892027118061
27937,SmIn2Rh,-0.6056623224999997
27938,Ca3Zr2AlFeSiO12,-3.3566128676250004
27939,K3YV2O8,-2.720403563976191
27940,Eu3Rh4Pb13,-0.27959233974999975
27941,Na3Sb3(AsO7)2,-1.9283742152115984
27942,TmNi3,-0.4477716350000011
27943,Eu3W(ClO2)3,-2.6831543950000003
27944,Lu6Al43V4,-0.29545583556603805
27945,Ca3Fe2(SeO3)6,-1.8948357677262935
27946,Na2PS3,-1.0934184351352971
27947,Be2Te7Cl6,-0.9212115049999994
27948,YbBRh3,-0.6106245318333329
27949,ZnFeF6,-2.328629001875
27950,BaAl2Si3(NO)4,-2.3829799242857144
27951,Lu3Co2Si3,-0.761631150625
27952,Tb4Ga12Fe,-0.5343030311764698
27953,Ce(BIr)2,-0.7176125286666661
27954,Sc(Fe2Si)2,-0.4659918328571432
27955,Ba5CrN5,-0.8850261777272738
27956,K4V5CdClO15,-2.3384397683461553
27957,Ba3Lu4O9,-3.6487853553125005
27958,RbCrN2,-0.6480447659375006
27959,ZrS2,-1.84893887875
27960,In2Au,-0.22870928333333337
27961,RbNd2CuS4,-1.8716965812500002
27962,Ca(Ni2Sn)2,-0.3458741450000003
27963,Sc2InCu2,-0.3685450709999998
27964,KTaWO6,-2.724571057555557
27965,Tm2MgGe2,-0.7463358166666666
27966,BaCr2(P2O7)2,-2.7969514120634904
27967,Tm4CdNi,-0.3132830794444447
27968,Pr3MgNi14,-0.27905326861111096
27969,TbGa2Ni,-0.6456369712499992
27970,YbGa2Pd,-0.7496658549999999
27971,SrZn11,-0.17639263222222232
27972,Yb4Mg4Fe3H22,-0.5692670524242426
27973,GdInRh,-0.7400898300000007
27974,NaAs,-0.386723302025862
27975,CeP5O14,-2.817706431333332
27976,DySbRh,-1.0659623225000001
27977,KDy3F10,-4.299322311285715
27978,Ca(AgO2)2,-1.3464370540476185
27979,Te2AuCl,-0.6205732949999998
27980,YMnGaO5,-2.7070480611997123
27981,Er(VGa2)2,-0.40533865571428657
27982,K2SnP2O7,-2.5497826952222216
27983,Th2Zn,-0.1567945300000003
27984,Ti5S8,-1.6966364924358976
27985,P2Pb2O7,-2.417683241969696
27986,Mn4Be3Ge3SeO12,-2.2957888793073
27987,BeH2SeO4,-1.722312310605469
27988,DyGe2Ir,-0.8000272493749998
27989,NaBi3(ClO2)2,-1.769881898655172
27990,ScHO2,-2.96200989875
27991,Sr(ErSe2)2,-2.213807191934524
27992,K3Nd3(PS4)4,-1.401141295282051
27993,LaCN2F,-1.9231403874999984
27994,KAs(HO2)2,-1.7194055634999996
27995,BaAgO2,-1.7532144216666667
27996,Eu(GaSe2)2,-1.3037607983035708
27997,KYTe2,-1.6167184599166666
27998,CeMgNi4,-0.3940057725000005
27999,SrAu5,-0.44961856444444415
28000,CaAl2B2O7,-3.2674899261111103
28001,TbInRh2,-0.7347489974999997
28002,Mo3P,-0.3499135483333333
28003,Eu3Ag2,-0.2616659416666664
28004,U5P3Se2,-1.0916330354687502
28005,BaSm2Sc2O7,-3.7771166924999995
28006,Y3Cu3Sb4,-0.8013457234999997
28007,SmCoC2,-0.30478705749999957
28008,LiYO2,-3.258111344375
28009,BaMoO4,-2.6545541241666677
28010,MnRh,-0.17830269896551698
28011,Li3ScN2,-1.0504224652083327
28012,Li2PmIn,-0.3129797260416667
28013,Na3AlAs2,-0.5127723549425287
28014,Na5AlO4,-2.082395862025862
28015,Ba3Co(CN)3,-0.6981720899999999
28016,Li2U3(PO5)4,-3.084529054482759
28017,MgScZn2,-0.3150799437499998
28018,CsK2Yb(PO4)2,-2.795254285042692
28019,TmSi3Rh5,-0.9569660349999999
28020,Cs2PSe5,-0.9413291901142689
28021,SmTeAs,-1.3543986125
28022,Nd(CoGe)2,-0.5934475779999999
28023,Al2Ag2Bi2S3Cl8,-1.3489804178063718
28024,CsVO3,-2.4180726150862073
28025,Tl2SiSe3,-0.7184939106163194
28026,NaMg149,-0.02377459817701151
28027,ErHO2,-3.0263798037500003
28028,Nd(GePd)2,-0.8359324219999997
28029,Pm3Ga,-0.239913647499999
28030,Cs4Os2Cl10O,-1.6786806009837727
28031,HoPO4,-3.508942013888888
28032,Rb6LiNd11Se12(Cl4O9)4,-2.3810389840421746
28033,BaPuO3,-3.4380815470000003
28034,Nd12Co6Sn,-0.1747162576315783
28035,Ba3AlO4,-2.9449569659375
28036,SrHBr,-1.6270690030555552
28037,Cs3FeS3,-1.1146308015240152
28038,Ho3Os,-0.27500426937500055
28039,SrBPO5,-3.1219247821875005
28040,Sc6Al16Ir7,-0.8709465551724138
28041,Sb2Cl5F4,-1.8581307802272726
28042,Sm3MnGaS7,-1.8256834118588365
28043,UGa5Ir,-0.4394024310714286
28044,RbSnIO6,-1.5147969719444443
28045,KMn(SeO4)2,-1.5145926496348778
28046,P2PbO6,-2.4875174147685186
28047,Yb5(AlSb3)2,-0.857782372692308
28048,DyPaRu2,-0.4012656475000007
28049,Na5Li3(TiS4)2,-1.5157779058014051
28050,Ce2ThS5,-2.336000076953125
28051,YbNdAu2,-0.8849173299999995
28052,TiPt3,-0.8491846429761907
28053,MnCoO3,-1.654938670586207
28054,Lu4CdPd,-0.4729541416666662
28055,Zr6Al7Cu16,-0.3533854879310344
28056,SmSbIr,-0.886187520833334
28057,NaOsO3,-1.6543901978103448
28058,K2InH2Cl5O,-1.7577288439545453
28059,Sr2Pr2TlNi2O9,-2.452353448229167
28060,Ba3Dy(BO3)3,-3.3014268863020835
28061,TiSiTc2,-0.5520330683333334
28062,Ba3Si6(NO6)2,-3.0724565260869574
28063,InCuTe2,-0.4811410787499999
28064,CrSiRu2,-0.4244659550000005
28065,CsTaPS6,-1.1052766434738193
28066,K2EuSi4O10F,-3.2476865776944432
28067,GdAu2,-0.8198153899999999
28068,Cu4PtO5,-0.9056159235000003
28069,Na4WO5,-2.1426948096206893
28070,K2TeCl6,-1.6462959151111112
28071,In3SnAu4,-0.20587277937499993
28072,Pr(CuGe)2,-0.5366382029999996
28073,Li(LuGe)4,-0.7864032342592593
28074,VGaOs2,-0.22151627937500074
28075,SrMgPb,-0.4546242205555557
28076,Ce(SeO4)2,-1.8475236245170443
28077,BHS3O11,-1.7844384699088547
28078,Ta2H,-0.20813805500000035
28079,TmCrTeO6,-2.5529356079629633
28080,ZrGa,-0.6264103587500003
28081,V3Co,-0.19621856000000015
28082,BaCeEuHfO6,-3.8427652594999997
28083,RbPb,-0.2171420265624997
28084,KUCrO6,-2.7646332195000003
28085,Bi2Pd3S2,-0.5082296844642856
28086,PdS2,-0.6052978995833337
28087,ZnAu,-0.2157175200000001
28088,ScCdPd2,-0.7236497387499998
28089,Ba2Mn2Se2OF2,-2.5471743156166196
28090,V3Pd,-0.13274766625000112
28091,FeHO2,-1.5497327968750003
28092,Th2SN2,-2.2430144566250005
28093,CoNiO3,-1.1416717329999997
28094,Ar,0.0
28095,VBr3,-1.1795229981250008
28096,Rb2AgMoF6,-2.5930703416666665
28097,Ga2HgTe4,-0.5424630871428572
28098,Na5Tm4Si4O16F,-3.3364609910641763
28099,Zr3P3Pd4,-1.04274257525
28100,CeTlF5,-3.523382034226191
28101,Ba5AlRu2O11,-2.6353935207894725
28102,V2ReW,-0.24467665624999846
28103,Ca3Tm2(GeO4)3,-3.107854887041666
28104,DyCuPbSe3,-1.2402566340885421
28105,ErAlFe,-0.3202632533333348
28106,TmPt3,-1.0606804016666667
28107,Sr(BiO2)2,-2.1114339966666664
28108,Na3Cr2(AsO4)3,-2.0620391457327587
28109,Sn3(PO4)2,-2.296713009551282
28110,NaSn4(PO4)3,-2.3485553938275863
28111,Ho3Te3N,-1.7332870542857144
28112,Th11(Ru2C3)6,-0.2942186590243911
28113,TiN,-1.897004114166668
28114,Rb3NaRe2O9,-2.2315275142701165
28115,Sr3BiN,-0.9335627630000005
28116,Pu3Zn22,-0.1649799568000003
28117,Sm2Ge(BO4)2,-3.184500375448718
28118,SrFe3(PO4)3,-2.5669991542982458
28119,Rb3ErF6,-3.55272705375
28120,Cs2TbAgCl6,-2.2167942632528734
28121,Pr2CuSi3Rh2,-0.9017478462500002
28122,DyAgS2,-1.5703183382291668
28123,P2H4PbO4,-1.4086875010606057
28124,CeIr3,-0.6343163908333338
28125,CrSb2,-0.03467407500000045
28126,RbBe2P3O10,-2.8665142554687506
28127,NdYCo14B,-0.14654691549019608
28128,TbTl,-0.3466638866666667
28129,Cs2NaEuCl6,-2.310306698741379
28130,SrHg3,-0.42572398916666665
28131,ErAl3Ni2,-0.6610099911111109
28132,Sr2HgPb,-0.6001066520833336
28133,Tm(Co2B)6,-0.3444748121929826
28134,YN,-1.867346775833333
28135,La2InCu2,-0.34024095599999954
28136,SbPbBrO2,-1.6264717095
28137,Ba3Sn2S7,-1.5841519080729174
28138,NdReMoO8,-2.5762142731818187
28139,Ba5Li2U3O15,-3.390430279466667
28140,Pr2Mn2Se2O3,-2.460613380616618
28141,Cs2MgGe3Se8,-0.9588232001508621
28142,RbZr6MnCl14,-2.0535773111559568
28143,K(USe3)2,-1.4037288841180557
28144,Zr6Zn23Ge,-0.2888995061666667
28145,K3ScSi2O7,-3.042630216461539
28146,U2SnPt2,-0.5956751899999986
28147,BeSiAs2,-0.21083347249999917
28148,LaI,-1.2659324349999999
28149,Sm3Ta17O47,-3.4408848319403
28150,RbLa(WO4)2,-2.673132972708333
28151,Sc2ZnOs,-0.4407992437499999
28152,FeGe3H4PbO10,-1.7493743200000005
28153,Be3Ag4P3BrO12,-2.232929813659421
28154,BaCaLaBiO6,-2.7790509135000008
28155,Na3AlSe3,-1.2873918391694887
28156,YLuCu2,-0.26866899916666576
28157,WF6,-2.8114170800000005
28158,CaMgPb,-0.4336517291666662
28159,YbPPt,-1.2016871977777772
28160,Ho5(Ge5Rh2)2,-0.7994537886842099
28161,MgAg3,-0.16183628375000003
28162,BI3,-0.34734485104166657
28163,Zr(SO4)2,-2.3534666312499994
28164,Li2CaSi,-0.3013355141666665
28165,Nb3Al2N,-0.7311526604166664