,formula_pretty,formation_energy_per_atom
26430,MgSc2Al,-0.2844106549999994
26431,ThSO,-3.4307770860416675
26432,PrSnPt,-1.030007155555555
26433,EuAsAu,-0.9146704649999992
26434,RbTi2(PO4)3,-3.025526921898148
26435,BaYZn3GaO7,-2.5369582676282048
26436,HfGa5Co,-0.3581446375000001
26437,Ac2AgPb,-0.3871514879166664
26438,CsGaNiF6,-2.8259964306034484
26439,Nd(CoB)2,-0.48968843766666625
26440,GaCuBr4,-1.0318859904166666
26441,Ba3Hf2O7,-3.6430189304166665
26442,Ho11Cd45,-0.21975420098214268
26443,LuMgAg2,-0.3052771658333331
26444,Gd(SO4)3,-1.899010604023438
26445,La3In,-0.29456404125000013
26446,NaZr2VF11,-3.730274216936782
26447,Pr3AgGeS7,-1.7117376807118057
26448,K3Bi2(NO3)9,-1.1612909240609761
26449,Na5Bi2As5O18,-1.914326516925288
26450,La10C4I15,-1.4823899236206894
26451,K2VCuS4,-1.2700003410625
26452,Mg2VB2Ir5,-0.5120701843333336
26453,K4Ba2SnP4,-0.6001605718484846
26454,LuAlPd,-0.9000803788888889
26455,CrF6,-2.0657577464285715
26456,Ba2NdBiO6,-2.7639339050000005
26457,Pb3(BrO)2,-1.4625788578571428
26458,NpIO5,-2.1228674837500003
26459,AcTlAu2,-0.5958569614583338
26460,TiCoGe,-0.5960383611111111
26461,Er7(NiTe)2,-0.7449685590909095
26462,V2Cd(P2O7)2,-2.603908313968254
26463,MnAl2O4,-3.047750007561576
26464,Sb3Rh,-0.54004195
26465,Sr7(H6Br)2,-0.9358342491269838
26466,KCd(PO3)3,-2.5448055620000005
26467,In2H10S3O17,-1.631689550136719
26468,EuAlF5,-3.9730670781250006
26469,K(CoO2)2,-1.4627062318571424
26470,AgRh(SO4)2,-1.4637239302430547
26471,CeSi3Rh,-0.8190431329999995
26472,Cs2KRuF6,-2.6324106058862062
26473,Sm3Cu3Sb4,-0.8355435465
26474,Na3PSO3,-2.203518848889188
26475,Rb2Li2GeO4,-2.1233419424074067
26476,K6PdSe20,-0.8469933183287034
26477,Ni2W3N,-0.25229816749999995
26478,La(Sb3Os)4,-0.19960109264705916
26479,ScCu2,-0.2595198483333334
26480,CsCdCl3,-1.8410853232528732
26481,NdNiGe2,-0.7448455462499997
26482,NaCr2In(H2O5)2,-1.6308649036973175
26483,U(ClO)2,-2.890195188999999
26484,LaSiBO5,-3.440274290729167
26485,Cr2Te3,-0.4655042084999991
26486,Rb4Mn(AsS4)2,-0.9759844051954029
26487,Ba2SiSe4,-1.7248040877678565
26488,Nd2EuSe4,-2.2065285149107146
26489,Tl4Te3Pb,-0.488502181041667
26490,ErZn2,-0.3900968600000005
26491,TaCoSi,-0.6993355716666656
26492,Th2Si3Au,-0.7536910983333343
26493,Na6Al4Fe(Si4O13)2,-3.051037625318007
26494,YbMgRh2,-0.5405732749999999
26495,K3In3(PO4)4,-2.551465163070513
26496,Ca(BH)12,-0.4148790373999992
26497,CsSm(WO4)2,-2.6392663110775865
26498,CaGaGe,-0.5239742441666664
26499,Ba5SrLa2Fe4O15,-2.7278600341358024
26500,K2SrTa2O7,-3.1518085123055557
26501,LiInAg2,-0.21823467416666675
26502,ThOs2,-0.25575190333333353
26503,Er2InNi2,-0.5437316120000005
26504,LiYF4,-4.040134309166667
26505,Cs2Se5,-0.9447383900115456
26506,NdGa4Os,-0.46643758138888813
26507,YRu2,-0.3144205022222219
26508,ZrVFe,-0.18712085166666625
26509,Pr13Zn58,-0.3226243658450705
26510,Ba5Cr3O13,-2.6139759602380956
26511,Y2(Al3Co)3,-0.5647616438095235
26512,TcAsH2(OF5)2,-2.17131840953125
26513,TbPbAu,-0.6871158066666668
26514,CaSnF6,-3.40332301375
26515,HoSi3Ni5,-0.6946562680555554
26516,Cs2CrO4,-2.07100649476601
26517,HoCuSi,-0.6460585583333328
26518,CoBMo,-0.43806527222222275
26519,Cs6Fe2O5,-1.4082306959681705
26520,Al2Te2Cl7,-1.5805700468181818
26521,U2NiP2(HO)24,-1.831270181257862
26522,KLuBeF6,-3.9066950092222217
26523,TbCo3,-0.16027906375
26524,Pr3InO,-1.5211515939999998
26525,BaZr(AsO4)2,-2.6209218599999993
26526,KPS3,-0.9624942451416665
26527,Al9Co2,-0.33188332454545455
26528,NaCa2IO6,-2.225308606155173
26529,YbPd3,-0.6966954899999998
26530,Cs3MnBr5,-1.8032182593582375
26531,Ca5As3O12F,-2.8343241572619045
26532,TiNi4GeO8,-1.9407485648809524
26533,Li(BH)6,-0.4034814492948715
26534,TbFeSi2,-0.6864849575000003
26535,NaHo(Pd3O4)2,-1.446177052284483
26536,Hg(AuF4)2,-1.4839967913636358
26537,Sr(GaAu)2,-0.6020328953333334
26538,Ba2PdF6,-3.2945619749999997
26539,Pr6S3(OF4)2,-3.8050957189144747
26540,K2NaZn2H5(C2O7)2,-1.7991110016982748
26541,Li8Nb2O9,-2.6422346942982453
26542,KSrB(PO4)2,-2.9608113934999993
26543,Sr(FeAs)2,-0.5342483613333335
26544,Pr(Ni2B)6,-0.3942624623684198
26545,Sr2I2O,-2.445376921666667
26546,GdTlSe2,-1.6339963470052083
26547,Li6RuN4,-0.5017689354545457
26548,NaTi2O4,-3.1396710397454837
26549,YLuTl2,-0.3155673183333336
26550,La(FeP)2,-0.9868727023333335
26551,ZrVF6,-3.6788592556250004
26552,Zr5SiSb3,-0.8574306716666658
26553,LiLu2Rh,-0.5631088758333327
26554,InCuS2,-0.7301020478125002
26555,TaP2S2Cl5,-1.291263401416667
26556,EuInRh,-0.5618271383333328
26557,RbTiAsO5,-2.559423414322917
26558,Rb2Cu(BrCl)2,-1.5815546035714287
26559,Li2Pr(NO3)5,-1.4354097057246378
26560,LiNd2Os,-0.07990014708333337
26561,LaNi4Pt,-0.45261992583333327
26562,CeAl4Si2Ir,-0.6372813993749995
26563,SmCoSi,-0.6756477683333321
26564,Ca2Mn3O8,-2.416973564137931
26565,K2P4PbO12,-2.59484436772807
26566,BiPS4,-0.6265864726388889
26567,La2(ZnGe2)3,-0.4240547959090906
26568,Tl3BSe3,-0.5206207980282735
26569,NbZn3,-0.16381860000000037
26570,Hf2TcRu,-0.6769847587500006
26571,K2SiH4(NO)2,-1.3268869132727277
26572,CrP2,-0.4275318522222224
26573,NaLaHg2,-0.406446125387931
26574,Ho,0.0
26575,BaCuP,-0.7283870161111109
26576,LuGa2Ni,-0.6539752587500001
26577,LaYbHg2,-0.5918359437499998
26578,Ba4Tl13Hg3,-0.2784078474166666
26579,ScAgO2,-2.6267450791666667
26580,Sr2VBrO4,-2.978657636666667
26581,NaCa2Nb8(BiO4)9,-2.5573032629741386
26582,TcBi3O8,-1.8074536825000003
26583,Nb4H3S8,-1.1587109379999996
26584,AcYbAu2,-0.8701398656250001
26585,LiSb2F7,-2.7898813428333336
26586,Nd3S2Cl5,-2.6298678313750004
26587,PtPb4,-0.12681435599999985
26588,NbTlCl4O,-1.9358553269047623
26589,PrInNi2,-0.3909169600000002
26590,Na3Ho(PO4)2,-2.9524244679515594
26591,VCo3,-0.17248472333333353
26592,Mg3(Ni10P3)2,-0.4825326762068967
26593,GdSnPt,-1.0804062894444446
26594,Ce3In,-0.20352646625000048
26595,GdB2Rh3,-0.6906145397222213
26596,TiPb2Se2ClO7F,-2.0015623925372026
26597,LaCuO3,-2.4238557999999997
26598,CuBi2(SeO3)4,-1.362707374177632
26599,Cd3B4(PbO4)3,-2.138467030075758
26600,NdBrO,-3.2838047108333335
26601,YGa2Ni3,-0.5460198252777775
26602,TeAs(Se2F3)2,-1.6686664490625003
26603,Cs5As5Se9,-0.873199709776259
26604,Ba3Ta2CdO9,-3.170645514333335
26605,Eu(SnPd)2,-0.7258145539999987
26606,DyGaPd2,-0.8988414131249991
26607,LaTb3(Mo2O7)2,-2.9262404838636358
26608,KBa4Bi3O,-1.3051868758888894
26609,SrNi9P5,-0.6576052978888887
26610,Cs2FeO4,-1.4427154208374386
26611,Ca(As2Rh3)2,-0.6508018599999988
26612,NdNiAs,-1.026898839166666
26613,Hf2Nb3Ge4,-0.6316786086111108
26614,Hg3H4(IO6)2,-0.8362058877380957
26615,ScGaPd2,-0.8731770431249997
26616,Dy3CuGeS7,-1.7248459909895832
26617,Mg2TaN3,-1.2448036624999996
26618,Rb2S2O7,-2.1156955123863637
26619,Sr3CaIrO6,-2.7130712709090905
26620,Lu3BC3,-0.4973030655952379
26621,Ba(SmSe2)2,-2.2363140263392856
26622,CsAs3O8,-1.7716216631609203
26623,CsVZnF6,-3.035398439770115
26624,Yb(GeRu)2,-0.5893903759999993
26625,LuNi,-0.5226925287499995
26626,ScInPt,-0.905873285
26627,K2MnF4,-2.9982869091330047
26628,LiSn4Rh,-0.356311629722222
26629,TbSiOs2C,-0.5143019980000005
26630,Rb2NbF6,-3.236980702222222
26631,K2NaCrCl6,-1.9641220262551724
26632,Ba7Sr5(MoN4)4,-1.0757861413541674
26633,YGe2Pd,-0.7693714241666658
26634,Li2Co12P7,-0.6401499328571438
26635,K3ErV2O8,-2.7346964034999997
26636,RbSmTe2,-1.6074448831250008
26637,Cu7S4,-0.3329507150000007
26638,Bi24Cl10O31,-1.6795497941538464
26639,NbCoTe2,-0.5890126306250005
26640,K3Ta2S11,-1.1973475845859376
26641,Ba6Ca2Ir3RuO18,-2.407143375166667
26642,MgZrPd2,-0.6995245525000007
26643,NaGaSiO4,-2.713228217245485
26644,PrIn5Ir,-0.3887040592857147
26645,Rb2Ti6O13,-3.3320984680952392
26646,AlFe3,-0.1989027450000007
26647,BaCu9Ge4,-0.14544315428571405
26648,Ce2SeO2,-3.35652640846875
26649,CsSnCl3,-1.8115027265862065
26650,Tb5Sb3,-1.0085700649999998
26651,Tm5Ge3C,-0.7403358925925931
26652,Er10Mn13C18,-0.33479903007569384
26653,DyTe3,-1.2413977225
26654,CoAuO2,-0.95989146375
26655,YbNdPt2,-1.1078048649999994
26656,Na(NiO2)2,-1.1285721216502458
26657,CaTaF7,-3.8450907287962965
26658,LuInPt,-0.9869985866666661
26659,La2TiO5,-3.8544294107291677
26660,PuB2Ru,-0.46973703833333325
26661,CsYZnSe3,-1.654110586104825
26662,AcSi3,-0.2889145443750003
26663,Cu9P4(HO10)2,-1.664349040095239
26664,Ba2LuIrO6,-2.8167698580000007
26665,Ba3(LiSb)4,-0.9531043748484849
26666,HfFeAs,-0.7052206199999999
26667,EuMg149,-0.02440137696666682
26668,La10Ga5Br4,-1.057443203552631
26669,Tb2InHg,-0.4703661387499998
26670,PaPbAu2,-0.27377154250000046
26671,KNaMnO2,-1.6864425954965518
26672,Y6Ni20P13,-0.912770800854701
26673,K6BiH3(Cl2F)4,-2.117333367863637
26674,GdSeClO3,-2.458682263723958
26675,TmGa3,-0.5184310947916666
26676,Ba4SiSb2Se11,-1.401037540876736
26677,HfZrB4,-1.003823674444444
26678,CaEuIn2,-0.46029906125000064
26679,TaAlFe2,-0.45263233000000014
26680,TmB2,-0.6522547150000003
26681,Sr3Sn13Ir4,-0.44945233899999976
26682,Li2HfN2,-1.3437569193333339
26683,ZnSO4,-1.8632509417708338
26684,Ba5Pt2O9,-2.309595011979166
26685,Cs3PdF5,-2.5026566768103446
26686,BaSrTa2O7,-3.4897378796969694
26687,Rb2CeBr5,-2.1953648184375005
26688,SiBr4,-1.2609659022500002
26689,Cs2MnS2,-1.1514100930086208
26690,CaSiH4(OF3)2,-2.7073231157142854
26691,Cs2Bi2Pd,-0.38409574117241335
26692,YbCo3B2,-0.4132152405555563
26693,Tb2IrPd,-0.8875369174999994
26694,BaPt,-0.7490768524999996
26695,Cs2PuCl6,-2.3299854939846742
26696,Sc2BC2,-0.5701258538333335
26697,PrAl2Ni,-0.5728468237500008
26698,RbFeF4,-2.8263877429166677
26699,KGeCl3,-1.6598746765999994
26700,Rb2ZnF4,-2.8412286507142857
26701,KInBP2HO9,-2.5243058312555564
26702,La2TeI2,-1.7418023060000003
26703,WBr6,-0.934522953571429
26704,ZrMn2,-0.18741523528735607
26705,Zn(CrS2)2,-1.0481403789285721
26706,TiP3WO12,-2.7649080428431367
26707,Be3Co,-0.2570863712499998
26708,LiAlGeO4,-2.713919046904761
26709,SmGaNi,-0.5902077941666667
26710,Al2Pt,-0.8940339766666661
26711,LuVO4,-3.2116024383333346
26712,Ce4Se3N2,-1.977480286336805
26713,Na4SrTa5O15,-3.1309465563149432
26714,Ho12Ni6Pb,-0.3866841926315779
26715,PrAlH6,-0.41197239062500035
26716,YMgPd,-0.6957296588888889
26717,Yb(AlCl4)2,-2.2483985152272723
26718,Ba4Mg(SiN3)2,-1.0843073161538455
26719,Er3(GaNi3)2,-0.5735991963636367
26720,Ba2CoMoO6,-2.4657969405
26721,Ce3Tl,-0.13479287208333357
26722,Lu(Ni2P)2,-0.8346962852380955
26723,Eu2Sn5Au2,-0.5207931599999998
26724,Ba3UAgS6,-1.9050020873106064
26725,Be2Mo,-0.31991838583333393
26726,Ti5CuSb3,-0.5528063485185181
26727,NaZrCuTe3,-0.9353570598419539
26728,H7S2NO8,-1.3673140753472224
26729,PbAu2,-0.07144231499999994
26730,Sm6Fe13Bi,-0.11600485724999884
26731,Er(GaFe)6,-0.3234641842307702
26732,PrBiO4,-2.4058379149999998
26733,Ba2SnHg,-0.6332105725000003
26734,LaCe(GePt)4,-0.956127052
26735,Tb2CuAg,-0.2758438991666665
26736,EuSiPt2,-1.0199819524999993
26737,La(SiNi)2,-0.7536140089999996
26738,Mn3AgAs3(HO6)2,-1.7180857938314178
26739,Mg3ScZn8,-0.19541257291666655
26740,Nd4MgRu,-0.18079746291666687
26741,LuGePt,-1.119570465833333
26742,Sc6Al16Os7,-0.606137659137931
26743,Ho11Sn10,-0.7207210821428569
26744,La9Ce3Si8(S8I)4,-1.8404373719642864
26745,KGaGeO4,-2.254449149714286
26746,Na2Mn2Se3,-0.974597181928109
26747,Tm(PO3)3,-3.026960497820512
26748,ThAg2,-0.17278084111111092
26749,YbSnPd,-0.8727374558333327
26750,NaSmF4,-3.974214138591954
26751,Ga4Hg11(PCl4)4,-0.9874011982380954
26752,Ce2Re3Si5,-0.5728305294999985
26753,PrB2ClO4,-3.093083114791666
26754,Yb(CdSb)2,-0.5386943500000001
26755,Tm11Sn10,-0.6846445439682537
26756,SiCl4,-1.7420281965000002
26757,LaZnGa,-0.5390259374999999
26758,Dy2IrPd,-0.9138291350000003
26759,NaNb2PS10,-1.0508511624025039
26760,Bi2Te7Cl8,-0.8253609358823527
26761,La10S14O,-2.6103289052500007
26762,Rb4Zr6CCl18,-2.236844986206896
26763,Y3AlC3,-0.39182230571428434
26764,Nd2AgHg,-0.3726364529166668
26765,CsTm(WO4)2,-2.655196457049808
26766,Er2Si3Pd,-0.8741957733333342
26767,Hg9P5I6,-0.26864380858333303
26768,Ca3Sn13Ir4,-0.4378115964999999
26769,NdCuS2,-1.6283931059374996
26770,LiInSiO4,-2.6540285472619045
26771,BaHI,-1.4002238966666665
26772,Y3PbC,-0.5704130280000002
26773,Y2(Ga3Co)3,-0.48955801720238057
26774,Na5InS4,-1.2146768360258622
26775,EuCrO4,-2.5029730158333323
26776,ErGa3,-0.5266555481249999
26777,Sm2SCl4,-2.640652071875001
26778,HfAs,-0.9975424462499998
26779,AsF3,-2.4770263687500003
26780,RbFeI4,-0.9016944100000005
26781,CaPAu,-0.8805402611111107
26782,Pm2AgOs,-0.14631190666666605
26783,CaMoO4,-2.6396284475000016
26784,EuSbAu,-0.9260624433333327
26785,Er7Co6Sn23,-0.39497154236111087
26786,NaEr(PS3)2,-1.205765838696839
26787,EuIO,-2.499971449999999
26788,MnTc2Ge,-0.16627299823275798
26789,NaErSe2,-1.9326464953098057
26790,CeZrF7,-4.179059411944444
26791,Cs2Cu3SnF12,-2.445221417270115
26792,Tb(Al5Re)2,-0.3562700175000001
26793,AsOsS,-0.5097332827083333
26794,YbNdAg2,-0.367166815833333
26795,RbBi,-0.3414403015624998
26796,GaPH9C3Cl3O,-0.754753913935185
26797,Sb3Au3F22,-2.1201018099107145
26798,RuBr3,-0.7233130718749994
26799,Rb2NaTiF6,-3.3138973009885064
26800,AlH10SO9F,-1.7280830900852273
26801,Li7La3(SnO6)2,-2.7178618165972215
26802,SmCoGe,-0.600636700833333
26803,Cs3Sb2I9,-1.1520771049137934
26804,Ti3V3Ge5,-0.5473145827272726
26805,Rb2NiH12(SeO7)2,-1.4024887456350807
26806,Y4C5,-0.32534918962962917
26807,GdHCO4,-2.5327380667857153
26808,NdAl3(PbO4)2,-2.976684416071429
26809,Cs2LiErCl6,-2.49185349091954
26810,Nb2F5,-3.001815479880953
26811,Nd2Ti2S2O5,-3.275258479810607
26812,Mg(H2N)2,-0.6336161683928572
26813,Na3Mg2P5O16,-2.7980796135123778
26814,PrCrSb3,-0.5721680265000003
26815,Ba3Fe2TeO9,-2.3453317433333334
26816,ThV4O12,-2.7180991932352945
26817,MnF2,-2.9683246143103443
26818,K2Se,-1.2539188127812497
26819,MgRh3,-0.26418068250000015
26820,Cs3Ag(AsSe2)4,-0.7557584057318607
26821,EuBi2,-0.618575289999999
26822,NaH9O5,-1.3477664697701148
26823,Rb2NaMoF6,-2.9834296786551726
26824,Tm2Fe14C,-0.0848872785784318
26825,KSnBr3,-1.5032127585999997
26826,CeP2O7,-3.109958150166667
26827,Pr2SiTeO4,-3.268417442812501
26828,KZn2CdB2O6F,-2.356818977217949
26829,PuB4W,-0.49848615361111115
26830,Sr3UO6,-3.534792936000001
26831,GeMo3,-0.149829453749998
26832,Nd(HO)3,-2.2105509935714287
26833,PaAlTc2,-0.3593504474999989
26834,YbGaPt,-1.0352818283333327
26835,YbGaNi,-0.5562461891666667
26836,Ce4S3O4,-3.2825964603977282
26837,YbGd3F12,-4.147962148125001
26838,ScSe,-1.8248868936718745
26839,LiNiRhF6,-2.31606112037037
26840,SrSbPt,-0.9516063222222222
26841,Hg(ClO3)2,-0.4336252550000002
26842,BaHgO2,-1.9624375387499997
26843,La(Sn3Ru2)2,-0.35876598772727225
26844,Ta3Re,-0.21812617125000067
26845,K2CuCl3,-1.7457143589166666
26846,Zn2PN3,-0.5536779913888891
26847,Cu2GeTe3,-0.30828199916666676
26848,Cs4Ni3F10,-2.648947592748478
26849,Ho2Au5F21,-2.2319584920535713
26850,K2ZrO3,-2.7850904772500003
26851,Dy3NiPd2,-0.7543080308333335
26852,BaCrO4,-2.4613357558333337
26853,BaPd(SeO3)2,-1.7012379639687503
26854,K2VAgS4,-1.1963469706458332
26855,Sr4SiAs4,-1.018998653518518
26856,Cs3NaLi2(BO3)2,-2.327360186096059
26857,IrS3Cl11,-0.7491984967916665
26858,SrCuSF,-2.303966970572917
26859,La12Fe2I17,-1.42106298951613
26860,Er(SiRu)2,-0.882773616
26861,RbSn,-0.2786498643749997
26862,Dy2GeO5,-3.3710492834375003
26863,KSb4F13,-2.7577880814166664
26864,TbCd,-0.3201307049999995
26865,ErMn12,-0.010035085013262583
26866,MgSi7Ir3,-0.4747966668181828
26867,TiFeGe,-0.5413387027777787
26868,LiSc(TlCl3)2,-1.9980275144999993
26869,V2CrFe,-0.1609843325
26870,Hf3Ga3Pd2Pt,-0.8112065008333337
26871,YbInAu2,-0.6934783675
26872,LaTlPd,-0.686967998333333
26873,PrMg,-0.11272814249999952
26874,ThGa2,-0.6386346566666669
26875,NdTe3,-1.3175945599999994
26876,Ba2CoSi2O7,-3.0614954804166667
26877,CaS,-2.3999277215625
26878,Nd2MnFe3Ge4,-0.45478568679310316
26879,Ni3B,-0.2628471747916663
26880,NaNb2PO8,-2.9051890624904204
26881,Na4Li5(BO3)3,-2.43681348549398
26882,LuGeIr,-0.9581092750000005
26883,ZrP2NCl11,-1.504471203277778
26884,DyHg,-0.4863214925000001
26885,Y5Si3H,-0.7506624003703719
26886,Er(PO3)3,-3.025887909038462
26887,Tb2Ti2S2O5,-3.311117761628788
26888,YbPO4,-2.9812266980555546
26889,Tm6Al43Cr4,-0.26119875801886794
26890,TlSbSe2,-0.5665772688802084
26891,HfAu3,-0.48137436249999954
26892,Ce2Bi,-0.5466962033333331
26893,Sb2TeSe2,-0.49819628493749946
26894,Ce2Fe2Si2C,-0.5817336828571423
26895,Ti2PbC,-0.5685984179166672
26896,Y3Cr2(GaO4)3,-2.9990020832499993
26897,HoRh2Pb,-0.5673941024999998
26898,KEu(WO4)2,-2.4827145202500005
26899,Y4MgCo,-0.1452276994444451
26900,Nd2Se3,-2.16445437115625
26901,LiSn4Au3,-0.2823390585416665
26902,SmMgTl,-0.34953275500000003
26903,Mg149Hg,-0.030708733100000055
26904,NaW6NCl18,-1.3262341958289132
26905,LiH2ClO5,-1.103377509537037
26906,CaH8(BrO6)2,-1.05793819326087
26907,Cs2Sn(HO2)6,-1.146742634802956
26908,Sr(AgGe)2,-0.3408885199999993
26909,HoAgHg2,-0.32934156916666657
26910,DyNi4Au,-0.38863070833333363
26911,Co23O32,-1.2834081075454553
26912,K4MnO4,-1.706954565825671
26913,NaTe3,-0.7031597545545983
26914,VH2,-0.32258263666666726
26915,Pr(Sn3Ru2)2,-0.33693322590908986
26916,Gd2AlGe6,-0.4240968833333333
26917,KTaP4O13,-2.7920218884912287
26918,Pr2US5,-2.1514048510156254
26919,NbSiPt,-0.774564354166665
26920,UB4,-0.5080195338333325
26921,RbAl3(P3O10)2,-2.9319911284166675
26922,CeCu5Ag,-0.12404474238095174
26923,ErTl2P2Se7,-0.8520554291449655
26924,AlSiTe3,-0.5212049669999999
26925,Zr5CuBi3,-0.3943165700000001
26926,K3(PdO2)2,-1.338214974888888
26927,BaCuAs,-0.7491517933333327
26928,CaSnHg,-0.5148784383333332
26929,Hf(SiNi)2,-0.7349692420000011
26930,Mn2AlW,-0.21519561146551602
26931,ZrHg,-0.1697002525000002
26932,PAuCl4,-1.004321474305555
26933,Be12Nb,-0.1484096776923078
26934,ZrBe5,-0.24109311249999976
26935,MoW,-0.0057753799999993305
26936,Ba(PO3)2,-2.9814419832407406
26937,KCa(H2N)3,-0.6073088270909092
26938,Ba2Na2SrAl4F20,-3.8914752943024187
26939,Ba4NaGa2B8(BrO6)3,-2.871061456177363
26940,TmGeRh,-0.9935486855555548
26941,Na3Zn(BO2)5,-2.624295720552027
26942,DyCdAu2,-0.6729408799999996
26943,Ho(PO3)3,-3.019539270320513
26944,Ba(SbS2)2,-1.1210146219642863
26945,Mg149V,-0.018477953466666575
26946,RbLi(H2N)2,-0.517152525416666
26947,Ta6V3Ni3C2,-0.39403819678571494
26948,CsAl3(P3O10)2,-2.929818071264368
26949,Pr5Pb4,-0.5772309366666669
26950,Ba4Li(BiO4)3,-2.1961263576666665
26951,EuN,-0.9906141799999997
26952,RhPb,-0.07930551999999953
26953,Er2Co12P7,-0.8097224273015865
26954,Sr5NbN5,-1.0441105159848496
26955,La3InPb4,-0.5500828431250007
26956,SmMgZn2,-0.3507568562500003
26957,SmDyHg2,-0.46994631124999975
26958,CsCrP2O7,-2.669771450190701
26959,Ta3TiB4,-0.8368954374999991
26960,La2ZnRhO6,-2.662992525999999
26961,Ba2GeS4,-1.7194145160714283
26962,La2SO2,-3.558540842625
26963,PmH3,-0.6481043356249998
26964,Sm(Al5Ru)2,-0.5212360523076924
26965,Rb(Zr3Te4)4,-1.1931684243965517
26966,Cu3Ag2Bi7Pb3S16,-0.5927285960752686
26967,CdAsPd5,-0.3871933478571426
26968,YbGeO3,-2.765222918
26969,Ho4C7,-0.29434782159090905
26970,Ac2ZnSn,-0.4361665250000004
26971,K5B19O31,-2.8340099580757583
26972,CaPdPb,-0.6225449733333327
26973,Lu3(P3Pd10)2,-0.7352483865517231
26974,K6Co2O5,-1.4195263433076935
26975,Ga40GeMo8,-0.13616350867346924
26976,TbSi3Rh,-0.7773622999999994
26977,Rb(GePt)4,-0.4649230986111108
26978,AlH6IO4,-1.595159170416667
26979,Rb2CN2,-0.5739929169999997
26980,Cs2GeCl6,-1.809585630095785
26981,PrIn2Cl5,-1.9529501193750005
26982,TiSnSb,-0.39482454694444397
26983,Er5(Ge5Rh2)2,-0.7913002057894739
26984,CsPH3O4F,-2.145158543001436
26985,Al2Te3,-0.70450076125
26986,HfHg3(SeCl3)2,-1.4308327387239583
26987,RbCdCl3,-1.8274960945
26988,Rb5SiAs3,-0.3888377072222219
26989,Na(CrS2)2,-1.0843182284359603
26990,Hf6Al2Ni,-0.3389250277777794
26991,PRu2,-0.40960586611111083
26992,Pu2US5,-1.9455364166406248
26993,La7Pt3,-0.7795948545000002
26994,Sr(CdP)2,-0.588413768666667
26995,Rb3SbSe3,-1.1553765406473215
26996,CaCe(FeSb3)8,-0.31823309602941247
26997,Na3Nd2(NO3)9,-1.4382516400525642
26998,Dy7Co6Sn23,-0.4103320365277775
26999,Na4LuC3O9F,-2.4598123904837164
27000,Th2AuF11,-3.5918915480357136
27001,Sr4Bi2O,-1.5664047302380955
27002,TiGeSb,-0.4886056161111109
27003,K2UAs2O9,-2.4547710440000006
27004,Ho2Ni(B2O5)2,-3.0874721042156854
27005,MgZn2(AsO4)2,-2.0146235634615386
27006,YAgSn,-0.6124464377777782
27007,ZrZnCo2,-0.27502248750000025