,formula_pretty,formation_energy_per_atom
9002,V3(SbCl12)2,-1.402183249655172
9003,Na2B4O7,-2.743873894213085
9004,Ce2Te5,-1.749695362857143
9005,YbMgHg2,-0.47666420499999995
9006,La21Mn8Sn7C12,-0.4616563804885061
9007,DyCdRh2,-0.5672771975000002
9008,TbRh3C,-0.4930566999999996
9009,NaErCu2F8,-2.9256667872126436
9010,Er2SiGe,-0.8291772787500005
9011,Cs2PtI6,-1.0733884262068965
9012,Pr(Al2Cu)4,-0.31187237576923094
9013,Gd2Br3N,-2.1955654087499994
9014,Rb3LuV2O8,-2.7339250444642857
9015,Ba3Cr2WO9,-2.7681222656666677
9016,Hf2FeTc,-0.4092719200000019
9017,Yb2Sn5Pd3,-0.6993137437500003
9018,Na15W7N19,-0.625997026665265
9019,La2ThS5,-2.4694336091406246
9020,SmDyMg2,-0.09011197374999957
9021,KNd(CO3)2,-2.5493037285499995
9022,NdPS,-1.7218583775694445
9023,NaDyS2,-2.095230378200431
9024,GaHO2,-1.899200654375
9025,YbCdNi4,-0.27650078333333344
9026,Nb2MoRu,-0.2249036512500009
9027,NaSmTe2,-1.533689875387931
9028,Nd8(Ga16Cu)3,-0.3428818913559319
9029,KCaEr2CuS5,-2.0194714323624994
9030,SrGe3Ir,-0.5468044283333334
9031,Pr7BP2O17,-3.560975391790124
9032,Sm(BIr)4,-0.5684870857407403
9033,RbBi3Se5,-0.8337926971354166
9034,MnGeO3,-2.123705890586207
9035,V2ReRu,-0.2979812175000003
9036,CeTl(PSe3)2,-0.9162937494062497
9037,NiSn2Au,-0.22768521249999996
9038,EuGa2,-0.5695345950000004
9039,Li2InHg,-0.3214779329166668
9040,K(SiPt)4,-0.7076890392222224
9041,Y2Be2Fe(SiO5)2,-3.302014449313726
9042,KHg2,-0.2808421693333332
9043,BaCaSn3,-0.60830062175
9044,La2CO5,-3.278116504583334
9045,UF4,-3.9657564193333332
9046,Cr2HgO4,-1.8869307807142863
9047,MnSb2Pb5O11,-1.7377157054174224
9048,BaZr2F10,-4.095318806153847
9049,Nd3SbO7,-3.3048712663636364
9050,Cs3Ho2Br9,-2.2520615468780787
9051,Tb2Ga3Cu,-0.5988094537499998
9052,Cs2LiNdBr6,-2.1465271884195407
9053,Na2Te2O5,-1.7474001864559388
9054,NpTeAs,-0.7950829862500003
9055,Sr3P2,-1.0413528440833333
9056,PmAu3,-0.6595649318749999
9057,Sm2AlAg3,-0.33154335333333346
9058,TbNdCo14B,-0.14645129274509827
9059,Ce3Zn11,-0.2904216232142858
9060,HfFeGe,-0.5437586961111123
9061,SmOs2,-0.1824571266666671
9062,BaSmC2O6F,-2.9068865961363644
9063,Si2Ni,-0.3526989399999998
9064,LuAu4,-0.6039877939999997
9065,Na15S5Cl(O5F)4,-2.346730792531131
9066,Yb2Ge,-0.655266531666666
9067,K4HgP2,-0.3661578919523808
9068,Ba4LiNb3O12,-3.208414467166667
9069,Sr2B5ClO9,-3.0724006195098035
9070,TbCrB4,-0.6499716644444445
9071,La(P3Os)4,-0.6209042891176475
9072,NaGa(SO4)2,-2.0396911183584767
9073,LaPd3,-0.8186271812499992
9074,ZrZn3,-0.2897606862500002
9075,BaTbCuTe3,-1.45360615
9076,ReS2ClO9,-1.7098622958653844
9077,Eu(CdP)2,-0.5953988343333328
9078,Co7Te4(BrO2)6,-1.2725925889655172
9079,Fe5B2P,-0.38754612020833257
9080,Na3P11,-0.23935823027298855
9081,Ca2CdP2,-0.9008058683333335
9082,Tb3Ir,-0.5656672368750009
9083,Ta2Te5Pd3,-0.6322770655
9084,TbAl4Ni,-0.5564645683333337
9085,NiSb6Ru,-0.33584070625000084
9086,Zr5Sn3C,-0.6761609855555556
9087,Sc2CI3,-1.2423134006249992
9088,Cs2HgO2,-1.2912457101724137
9089,Tl2MoO4,-1.6615444816666678
9090,Nd(BO2)3,-3.1752698789375002
9091,Nb(PS4)2,-0.804063835378788
9092,NiAuO2,-0.82775952125
9093,CsAuBr3,-1.221344844086207
9094,Yb3N2,-1.0914975419999997
9095,SbCl5,-1.1588807700000003
9096,ScGe2Os,-0.5254164741666661
9097,NdTl,-0.39173727166666694
9098,HoAgTe2,-1.1184755254166667
9099,Pr3BBr3,-1.4868851152380944
9100,BaNa(PO3)3,-2.87169849403941
9101,NdB2Rh2C,-0.5764851347222226
9102,Ca5(InSb3)2,-0.8349642823076926
9103,AlSiH9C3Cl2O,-0.8101564970588238
9104,NdCu2,-0.20247874833333354
9105,Ho5CoSb2,-0.7514829574999995
9106,Tm2Si9B36C,-0.2022175986111101
9107,EuMgPd,-0.6085776316666672
9108,TiCdF6,-3.283530064791667
9109,La6Co13Sb,-0.20989819575000085
9110,CaBi2O5,-1.9773415948437512
9111,Tm3(GaNi3)2,-0.5842048904545455
9112,Np(BH4)4,-0.2573911143055557
9113,YSiAg,-0.5875008566666666
9114,Eu(FeSi)2,-0.47306283899999924
9115,KBaBiTeO6,-2.0766365243000005
9116,LiDyS2,-2.0991681223958327
9117,TePb5O8,-1.541685955178572
9118,PaB3,-0.20069146437499885
9119,Ba(AsO3)2,-2.1914320077777782
9120,KFeSO4F,-2.2010734031093753
9121,LiNi2P3O10,-2.3828820170833334
9122,CsBa2Nb3O10,-3.1315378567456893
9123,Zr5Sn4,-0.5926891699999999
9124,TmCrB4,-0.6935095451388887
9125,PrZnGa,-0.5400476075
9126,K2Zr(SiO3)3,-3.223989728066668
9127,Pr2Ga12Ni,-0.3972529406666666
9128,Tm2(Ni5B3)3,-0.42451403368589635
9129,ZnS,-1.0631314144196427
9130,LiCd2Ag,-0.20566436749999983
9131,Rb3TlCl6,-1.8576084075833337
9132,VCd2BiO6,-1.8621805875
9133,ZnCdAu2,-0.2010607124999999
9134,PPd3,-0.4792306902083334
9135,Pm2Se3,-2.1794310669062504
9136,CeSi2,-0.6112643833333328
9137,La2Pd2Pb,-0.8416951850000004
9138,Cs2La10Os2I17,-1.546311649705229
9139,FeBi(SeO3)3,-1.4378668880022332
9140,Ba4Fe4O11,-2.226391595526316
9141,Hf2SnC,-0.7710108299999998
9142,Ta12MoO33,-3.2377432905434786
9143,TiGeRu2,-0.6982344895833341
9144,CeAlNi,-0.5696318694444444
9145,MgCd(CO3)2,-2.111161009
9146,ScAlAu2,-0.7050442587500001
9147,ScAg,-0.2870132158333334
9148,Cs6Ho21Te34Cl,-1.671378776896552
9149,HfSnRu2,-0.6384050487500001
9150,Ca3(GaPd)2,-0.7138650821428573
9151,KUCrNO9,-2.1655887988846154
9152,Cs2Te10Mo9,-0.6365476688505748
9153,NbAs,-0.6680566124999991
9154,Sr2BN2F,-2.025215420416666
9155,K3NiPCO7,-2.231695299025641
9156,TbP5O14,-2.8235989447083325
9157,Cu2NiSnO4,-1.3433536087499993
9158,PrSnAu2,-0.6878474900000002
9159,Mg2Co12As7,-0.2774859979761897
9160,YbCuBi,-0.5303095983333327
9161,P3Pb5O12F,-2.3733474398809524
9162,CaPrHg2,-0.54976748375
9163,Nd2SO2,-3.451995034625
9164,RbVP2O7,-2.7394643974242423
9165,Ba2CuIO2,-2.2309601266666665
9166,ThSnRh,-0.9265330661111114
9167,NaCr(SiO3)2,-2.896086350655172
9168,Lu2OsPd,-0.6752892237500001
9169,LuAlNi,-0.6361097577777781
9170,TmB4,-0.5780460971666663
9171,Eu5Sn3H,-0.6680841794444442
9172,TiTlAsO5,-2.311654854739584
9173,AgSbF6,-2.361922204270833
9174,MnNbSi,-0.5326033281992343
9175,MnGe,-0.12276029146551792
9176,Ta2NbIr,-0.3885967174999987
9177,Mg3Tl,-0.03883065208333325
9178,Sr2H5Rh,-0.6656485060416677
9179,BaAg2,-0.2951153344444446
9180,NpB12,-0.2138517475961532
9181,Pr(PPt)2,-0.9721912333333336
9182,HoNi5,-0.3330840516666669
9183,RbBS2,-1.1331059873958338
9184,LiAl2Pd,-0.6404172683333336
9185,PrTlSe2,-1.605495798255208
9186,Gd2(Ga3Co)3,-0.4848866219642858
9187,PH4I,-0.2688164747222217
9188,Gd(SiAg)2,-0.3853862626666654
9189,TbGaCo4,-0.2596372534722222
9190,BiO2,-1.4597641266666663
9191,TaSe3,-1.0073090273828127
9192,P3RhW2O15,-2.281732024047619
9193,U2SnIr2,-0.5261892349999997
9194,LuIn3,-0.325279965
9195,Ba2B5BrO9,-3.0079613431372554
9196,Cs4KLiFe2F12,-2.9551552259028733
9197,UMn2SiC,-0.31304627017241415
9198,Cs2LaTa6(Br5O)3,-1.8787154975319282
9199,TbSiRu2C,-0.6019212199999998
9200,V2PO5,-2.605382482916668
9201,PaPt3,-1.0254147087499996
9202,Pr3ReO8,-3.2287396506249997
9203,Na2Ga2GeS6,-1.0865428692594044
9204,H8RuN3Cl5O,-0.8613763865277788
9205,La4CePd15,-0.8319847057499998
9206,Ta4MoS10,-1.3521681174166673
9207,Cs3GaF6,-3.0321609196293102
9208,Ba3AlP3,-1.0116464682142856
9209,Ti2CoIr,-0.6574297404166671
9210,CeGaNi4,-0.4733643070833331
9211,K2Na(B3O5)3,-2.8085583754648784
9212,YbSm3S4,-2.3341257259374997
9213,LiCaAlN2,-1.182386427166667
9214,Nb5(NiP)4,-0.8489443410256416
9215,MnAlAu2,-0.2479184844827591
9216,Rb3InP2,-0.3202137736111113
9217,TbZrF7,-4.234805943055555
9218,SrLuCuSe3,-1.765144199782986
9219,KTcO4,-2.157136768833333
9220,Pr3Zn22,-0.28471843320000007
9221,KTlO,-1.2013808837777777
9222,Te16(Mo3Ru)3,-0.5237874455357142
9223,V3B2,-0.7226935446666658
9224,CaH8(ClO6)2,-1.1819183597826084
9225,K3GdGe3(HO5)2,-2.297055469026315
9226,EuZrF6,-4.077037899374999
9227,TiAs2O7,-2.191826666583333
9228,CrF4,-2.608649016
9229,SrFe3P3O13,-2.516873675333334
9230,Al11TlO17,-3.3083794923563223
9231,TbSi2Rh3,-1.0222082733333338
9232,Dy2PdRu,-0.65109893125
9233,Na2H4Pd,-0.3477461404433499
9234,K2FeP2H3(O4F)2,-2.342018229037037
9235,ThSb,-0.9992729800000006
9236,Ho(NiGe)2,-0.6831929320000001
9237,ZrPRu,-1.1220211002777785
9238,LuTiSi,-0.6476298961111103
9239,CsP(HO2)2,-2.1855126229705455
9240,P2PdO6,-2.1680020468518526
9241,Pm2IrPd,-0.7529480137499993
9242,Te10Mo3I10,-0.5877111623913046
9243,PmDyZn2,-0.33199143687499966
9244,Dy6Ta4Al43,-0.3080438898113209
9245,Er2Pd2Pb,-0.8454010420000003
9246,AcMg5,-0.05941059875000013
9247,ThB4,-0.6214714853333334
9248,NbSi2,-0.5019119911111116
9249,Y(SiOs)2,-0.7230777013333338
9250,NaEr(Pd3O4)2,-1.446645281034483
9251,Cs3Ti3Te11,-1.0166922584584175
9252,Cs(Bi2Te3)2,-0.5959809818573674
9253,FeNi,-0.06722973499999974
9254,GaPt,-0.6301002174999999
9255,Na2CuAsCO7,-1.7195573069252863
9256,Li2Co3SbO8,-1.7606314774404754
9257,Sr(YS2)2,-2.4153913482142855
9258,Ba2V2FeHO9,-2.5655861446666677
9259,Ca2CrN3,-1.1311494066666654
9260,Ba3PrIrRuO9,-2.515786133000001
9261,Tb2Cl3,-2.204839705
9262,Rb2NdCl5,-2.5535071074999998
9263,Y(AlGe)2,-0.418217383333333
9264,KUCuSe3,-1.3012062150052077
9265,NdGeIr,-0.8254510099999995
9266,Cs3B(SeO4)3,-1.7213129081574219
9267,Na3LuSi2O7,-3.0755773403580897
9268,TlFeBr4,-1.0278208830555553
9269,CeSn3,-0.5356054349999999
9270,VHg4P2O9,-1.8959056930729163
9271,Nb2O5,-3.0342052746938792
9272,Ti2TcRh,-0.7331501491666668
9273,SrCdGe,-0.47721619055555564
9274,Rb2BiF5,-2.8929679665625003
9275,YbEu(SiAu)4,-0.5390240114999998
9276,Cs2TeOF4,-2.6162410457327585
9277,Ca10P6SO24,-3.2841696294664633
9278,Na2Ca17V2(PO4)14,-3.2135339396678027
9279,Cs2NaLuCl6,-2.5036933622413793
9280,LaGa3Cu,-0.5282281054999999
9281,VBiPbO5,-2.02351889125
9282,Np2S5,-1.4824393675892864
9283,Dy3Sc2S7,-2.306630941822917
9284,Ga(SiNi3)2,-0.4744098011111109
9285,Ba6Os2N6O,-0.9427612596666667
9286,LiUO3,-3.348508900666667
9287,Ba3Nb16O23,-2.6945847325000005
9288,Cd2Te2O7,-1.5174393295454542
9289,Li3P,-0.6965688783333333
9290,Dy2MgSi2,-0.6865245009999995
9291,ThCdHg2,-0.2405214050000004
9292,BaNbO3,-3.178755383
9293,Na2MnAsCO7,-1.9933811159195407
9294,TaFe,-0.19084300576922977
9295,LaCuGe,-0.6429783800000001
9296,KSn2F5,-2.715425242770834
9297,TbUTe4,-1.2347656233333335
9298,Gd(BC)2,-0.44224464166666594
9299,YbB2Ir3,-0.658282458055556
9300,Sr4PtO6,-2.6248638710606063
9301,S5(IO9)2,-1.441386814225001
9302,Rb2Se5,-0.9185783548883931
9303,K2ZrFe(PO4)3,-2.825467243736842
9304,K9Y3Si12(O16F)2,-3.201421241068966
9305,Th3As4,-1.3395963778571425
9306,Pr2CdNi2,-0.33723924499999997
9307,KH3F4,-2.19317095225
9308,Ag5Hg4P8Cl5,-0.39350514545454535
9309,Eu2SeO2,-2.7931928844687506
9310,RbSmSe2,-1.9644151942968748
9311,KMnGa2P3(H2O7)2,-2.284546473437242
9312,NdGa3Pd,-0.6871268004999997
9313,ThCd2,-0.17923449666666671
9314,Ag2SnHgS4,-0.47334723260416656
9315,NdP2(HO2)3,-2.3997347107638896
9316,Ba2GdCl7,-2.8726121575
9317,Er3CuSiS7,-1.7936563780729162
9318,KZnB(PO4)2,-2.650974809525641
9319,K3NdSi2O7,-3.0399785858205135
9320,Na3CaPCO7,-2.6060666756145
9321,Ca3Ni7B2,-0.33624928486111055
9322,Tb3B7W,-0.5638465567424243
9323,Ba(V5S8)2,-1.3529845314814817
9324,Y6Cu11O24,-2.062487905853659
9325,K2SeBr6,-1.3038673425937501
9326,Pr(Co2B)6,-0.3410908936842098
9327,Lu2In,-0.3276423849999996
9328,SnHg6(As2Br3)2,-0.5445051266176473
9329,Tb(AlAu)2,-0.71598751
9330,MoP2,-0.5154772038888886
9331,Ca2MgReO6,-2.870472233000001
9332,Ho2CdCu2,-0.29856928099999963
9333,PuGa4,-0.31796971999999923
9334,PrPtF7,-2.9088298427777777
9335,LaMnSi,-0.47744867597701085
9336,Cs2GeSe4,-1.0525522464624382
9337,La4Rh3,-0.7052303307142854
9338,Sm2Fe12P7,-0.6718610715873026
9339,Ba6Gd2Fe4O15,-2.7044770320370373
9340,RbTl(SO4)2,-1.8386901830902775
9341,Rb2LiNd(BO3)2,-2.8503699157638884
9342,CsBr,-2.0528959977155172
9343,KSO3F,-2.2574825910208336
9344,ThPt2,-1.2336300216666665
9345,Cs5Nb2S4Cl9,-1.8848800341077587
9346,Sr2DyMoO6,-3.0947018693333335
9347,SnSe2(Cl4O)2,-1.1554395995913462
9348,Ho4MgRh,-0.4022860704166664
9349,Ce3(GeRh)4,-0.8884133786363629
9350,Sr3Ca6V7BiO28,-2.9173954148888885
9351,NaCoPO4,-2.350491936769295
9352,YSi3Ni5,-0.692700604351852
9353,YbCdAu,-0.702013773333333
9354,YbInBr3,-1.8568909115000003
9355,Ho(FeGe)6,-0.278969907307692
9356,Ce(TiAl10)2,-0.258877560942029
9357,DyMg3,-0.07453836249999979
9358,NaGaTe2,-0.8008358535129312
9359,Zn3PBr3,-0.8975884122619046
9360,TmTe3,-1.185828402916667
9361,YHSe,-1.651814808003472
9362,Ni3Se2,-0.4549654489374994
9363,La5Sn3,-0.7046370318750004
9364,Ba2Cu(PO3)6,-2.739812603425927
9365,Ce3B2(ClO2)3,-3.2527256834523803
9366,Cs2Te4O9,-1.6773157598908053
9367,Ca(Cu2P)2,-0.44775580523809466
9368,EuCdAu,-0.6179679083333335
9369,Nd2CdPd2,-0.7408101359999997
9370,La(AlPd)2,-0.8725236099999997
9371,CeYIn2,-0.4232213879166675
9372,Rb2LuCl5,-2.5421913946874994
9373,Nb3Sn,-0.163862066250001
9374,DyRhO3,-2.5839209960000007
9375,La3MgAlS7,-2.155361385572917
9376,MgAlB4,-0.1459128694444433
9377,Er2B6Rh,-0.6589057458333332
9378,K3Fe3P4H2O17,-2.3458128940459777
9379,NdTa3O9,-3.5098241769230776
9380,CaInPd,-0.6981105741666666
9381,Pr2ZrS5,-2.2006865928906247
9382,CuGeRh2,-0.37115717125000014
9383,Nb2PdS6,-1.123423029861112
9384,Sr2FeReO6,-2.5434295705833336
9385,YAl4Ni,-0.5569999844444448
9386,Sr2ZnSi2O7,-3.181583406527778
9387,Ta5AuS,-0.39435067616071456
9388,DyCd,-0.31811367499999976
9389,Nb2B3,-0.7472915165000004
9390,NdIn2Ir,-0.5302963725000005
9391,Dy3Ir,-0.5833388006250004
9392,BaEr2Si3O10,-3.6174574921875005
9393,InSeI,-0.8217655722395835
9394,KMn6As7O24,-1.9163546246206895
9395,Rb2W2O7,-2.2765637195454547
9396,TmSiRu,-0.8408071938888876
9397,Cs2B2S3O13,-2.2228616369285206
9398,CdAgPd2,-0.2583104991666665
9399,Cs2HfF6,-3.7667481345402294
9400,Sr3WO6,-2.995114557000001
9401,Y6WO12,-3.669244018947368
9402,AgHgSBr,-0.548633564322917
9403,Sm(HO)3,-2.22462407
9404,Sr3Sn13Rh4,-0.5153945409999998
9405,Eu3Sb5O12,-2.3490385695000007
9406,YAu2,-0.8585484422222223
9407,Na5(ZnSn5)2,-0.1516106475152128
9408,Cs2LiPrBr6,-2.1442685699195403
9409,Sm6Cd(SiS7)2,-1.8940966827717391
9410,CrSi2,-0.32491061999999954
9411,USbS,-1.1288384393749997
9412,Li2ThN2,-1.2077406073333337
9413,Zr6Ni20P13,-0.8795881003418811
9414,KBe(H2N)3,-0.6007081689659095
9415,NbRh3,-0.5083643687500002
9416,CsY2Cl7,-2.695850944626437
9417,TePbF6,-2.5707655271874996
9418,AgRuO4,-1.0139209536111107
9419,NiP4H16(NO8)2,-1.6621871398290602
9420,K2U3(TeO7)2,-2.8769537607619045
9421,LiCa2HC3,-0.2755353826190462
9422,Cs3Ag9(SbS3)4,-0.5879985675461822
9423,SrAlGe,-0.4703856705555551
9424,Mn3Nb6O11,-2.450766437689656
9425,K2Ba7(Si2O5)8,-3.301944067938461
9426,YbSiPd2,-0.916097470625
9427,TbZn2,-0.38990697999999985
9428,Gd(AlFe)6,-0.3808390484615387
9429,CsMgBr3,-1.9818030820862067
9430,ErB2Ir3,-0.6962499247222217
9431,TmAsS,-1.6884587915972216
9432,BiPd2Pb,-0.29596353062500036
9433,Tb(AlGe)2,-0.42058934800000003
9434,Eu3Sc2Al3O12,-3.5416984010000006
9435,DyAlNi,-0.6069927899999996
9436,CaCu,-0.1436979499999996
9437,PrNiSn,-0.6095761991666665
9438,Cs2Ti(AgS2)2,-1.229194845558749
9439,K4CrO4,-1.8600673218888883
9440,NbNO,-1.9765594149999994
9441,RbLu(WO4)2,-2.677168478958334
9442,Hf2TcPd,-0.6221982825000012
9443,Pr2MgGe2,-0.7532407509999999
9444,SrCu,-0.10559802458333323
9445,NaTlO2,-1.424646257471264
9446,Er20Si12C,-0.6973536306060608
9447,W2NCl9,-1.314124824375
9448,K(AsRh)2,-0.6111402305999996
9449,Eu2Zn2CuP3,-0.7803918243750001
9450,Ac2O3,-3.73766829
9451,Li2B3PO8,-2.7981803880357146
9452,Ga17Rh10,-0.5984924679629631
9453,PaCo3,-0.32564748124999987
9454,CePt3,-0.9654494537499998
9455,NaClO4,-1.0074997002586208
9456,Na2YF6,-3.3071494771966794
9457,LaAs2Pd3,-0.8727698391666673
9458,LaOF,-4.257405572500001
9459,Ta2TcOs,-0.4046463937500011
9460,MnAlCo2,-0.36919633698275867
9461,Tm(MnSi)2,-0.6049348185057468
9462,Cr2Rh2C,-0.11222981199999964
9463,Li3YBi2,-0.6658193661111108
9464,Bi2Rh3S2,-0.5192876801785715
9465,La3SiCl3,-1.9506004442857139
9466,HoH2ClO2,-2.4291341874999994
9467,ErHCl,-1.6108257916666673
9468,Mg(ReO4)2,-2.402848452727272
9469,SrNiP2O7,-2.746332475530302
9470,Pr2SiC(NO2)2,-2.6611733220000007
9471,LuRu2,-0.4023925300000002
9472,Ta20Pd9S50,-1.2135797053955695
9473,HoNi5Ge3,-0.5308005705555559
9474,Ba3Sn2O7,-2.6688900041666663
9475,Ba(CuO)2,-1.6165894719999998
9476,Hf2OsRh,-0.7891775537499992
9477,Sr2HoSbO6,-3.1206184973333335
9478,Sr8(TiS3)7,-1.9777004358969903
9479,Sc3InC,-0.6689025430000001
9480,Sr2Zn5Si3,-0.2963041743333335
9481,KSr6Sc(SiO4)4,-3.4017927846607146
9482,Y2ZnRu,-0.35893983708333366
9483,Sb2Te3,-0.38320282399999994
9484,SrNiF6,-2.6134841089583336
9485,LaZn13,-0.20386644499999992
9486,RbV(CuS2)2,-1.0847860675000005
9487,Tb4Te3N2,-1.7750161294444444
9488,Yb(Ni2P)2,-0.7770969480952387
9489,NdCoO3,-2.5259900020000003
9490,Li2MgSi,-0.2281036410416668
9491,TaSe2,-1.133137701562499
9492,TlCdF3,-2.2994712904166663
9493,H6OF4,-1.6863357504545462
9494,LiPmHg2,-0.458347465208333
9495,K2LiInAs2,-0.5627627557222225
9496,YTl2P2S7,-1.0427811709895838
9497,Ba2SrWO6,-2.968444095666668
9498,Rb7NaSi8,-0.01472972650323312
9499,Sr2V3Se5O18,-2.023540285984004
9500,Na2Si2O5,-2.903809341178161
9501,CdAs2HF13,-2.372176806617647
9502,K3AlTe3,-1.121012412357143
9503,Er(AlCu)6,-0.3470814138461543
9504,HoAs,-1.5184649025000008
9505,Sr5Re3IO15,-2.716090404305555
9506,NbN,-1.2481991524999998
9507,AsIrSe,-0.6734101941145845
9508,Ba2ReO5,-2.7412754868750007
9509,Ba3(PS4)2,-1.568217403589744
9510,KI(OF)2,-1.8648800171666668
9511,Pr3Co29(Si2B5)2,-0.38362551492753644
9512,Zn3GaB6PO12,-2.4010247019927533
9513,Dy3CuGeSe7,-1.5351486363671871
9514,Zr5CuSn3,-0.5403494188888887
9515,DyTaO4,-3.7371224599999997
9516,NaLaMgTeO6,-2.613223457155172
9517,KAlCo(PO4)2,-2.716938052474359
9518,Cs2Cd3Te4,-0.9061357228735629
9519,Ba2HoMoO6,-3.047572949
9520,ReB2,-0.42784980277777745
9521,BiAuCl6,-1.1068352056250004
9522,RbMgP(H6O5)2,-1.7375872850333338
9523,YSbPd,-1.1910533588888892
9524,YSi,-0.816633433333334
9525,Li3CaMnN3,-0.7987371259913791
9526,GdMn2O5,-2.6240794866702597
9527,Ta2NbOs,-0.3123066137499997
9528,V(PO3)3,-2.6531331521794876
9529,Pr3Cr10N11,-0.8731100816666668
9530,Dy(CoB)4,-0.5048670646296303
9531,DyReB4,-0.5904093461111112
9532,Cs2RbYF6,-3.5653890155028733
9533,CsNb(CuTe2)2,-0.704541206616379
9534,TbF3,-4.467667861875
9535,MgZnAg2,-0.165332985833333
9536,Mg2FeH6,-0.4052702355555553
9537,Lu(TiGa2)2,-0.5204258566666665
9538,TlZnAsO4,-1.6866046379761903
9539,DyRh,-0.8842515650000005
9540,Sm2Re3Si5,-0.5449355317500008
9541,TeAuI,-0.4055043549999997
9542,La8Si5N14O,-1.6969573608928579
9543,EuAgSb,-0.7941206505555556
9544,Y3ReO8,-3.2920507108333332
9545,GdSb,-1.25868088
9546,LaVI5O16,-1.414569243804348
9547,Sm(CoGe)2,-0.6064861730000004
9548,MgTlAs(H6O5)2,-1.5040611753333337
9549,KZrVF7,-3.5733600983000002
9550,Li2AcIn,-0.2502843297916666
9551,LuNiPb,-0.40665747222222215
9552,Sc2AgRu,-0.44181223041666673
9553,Li3AuS2,-1.2068272510416669
9554,GdMgHg2,-0.45906757999999925
9555,TmCuSb2,-0.6498740704166668
9556,Ca3BN3,-1.238514797738095
9557,Ba(GeAu)2,-0.4901227580000004
9558,Cs2PtCl4,-1.714341523694581
9559,EuB2Rh3,-0.6046958522222224
9560,K3NO3,-1.2916959770000003
9561,LiLuO2,-3.385957067083333
9562,Ca3Ga3Rh2,-0.6395624237500002
9563,Fe3(PO4)2,-2.29624265551282
9564,Si2Pb3O7,-2.415327727777779
9565,NaTbMnWO6,-2.690212624448275
9566,CaV4(AgO6)2,-2.2051314378070193
9567,Ho6Al43W4,-0.2736585823584913
9568,LiCl,-2.1369242841666667
9569,Nd2Ti3(ClO4)2,-3.498647982833332
9570,Zr7Sb4,-0.7400432859090916
9571,Ca(Al2Fe)4,-0.3485606869230771
9572,CsC8,-0.0457927331034461
9573,NpP,-0.871692436041668
9574,Ba7Al10,-0.23075442352941167
9575,K3IrCl6,-1.7570438486499995
9576,CrP,-0.5386608804166659
9577,Nd2MgGe2,-0.7640601690000004
9578,HoErRu2,-0.3712033624999993
9579,Tb4Ge6Ir7,-0.8664501358823524
9580,CsDy2Cl7,-2.7015560677931036
9581,PbSe,-0.7966406761718745
9582,Cs2Hg3I8,-0.9500975285278515
9583,LaMgCu2,-0.18566234874999976
9584,RbAuBr3,-1.1852068770000002
9585,KGaI4,-1.1321200738333335
9586,Mg2GeB2Ir5,-0.500240827333333
9587,Li2AcTl,-0.20281093812499984
9588,Ca3BI3N2,-1.6395676032407407
9589,Sr2NiIrO6,-2.083083125333333
9590,LiVPO4F,-2.8383262783333336
9591,Y3Al3NiGe2,-0.7487573155555557
9592,Sc2GaCu,-0.46829101937500006
9593,BiTeBr,-0.8220377525000006
9594,CsHg2Br5,-1.1604515906788793
9595,Li7VN4,-0.9227858510069448
9596,CeNdN2,-1.6313698387500013
9597,TbN,-1.8358401024999988
9598,HfIN,-1.6587177899999983
9599,Cs4PbO4,-1.5076145368582377
9600,Lu(MnAl2)4,-0.33810569090185755