,formula_pretty,formation_energy_per_atom
0,Zn2B2PbO6,-2.2554614698484854
1,Nd4GaSbS9,-1.8395398243749999
2,Tm2Pt,-0.9918405536111106
3,CsRb2MoF6,-2.8904163407931036
4,Ta3(BiS3)2,-1.1721218726136364
5,KMgSb,-0.6499148243333336
6,Er6Nb4Al43,-0.3272981344339625
7,SiH7N2F5,-1.7695719908333336
8,CsK4GaO4,-1.714143570868103
9,NaPt2Se3,-0.8154667601804958
10,Lu(Al2Fe)4,-0.4278970715384619
11,ThGe2,-0.6381049316666664
12,NaMo3P3O16,-2.354890295284858
13,Yb2Be2SiO7,-3.070398138333333
14,Tm4Ni13C4,-0.36080306079364954
15,Rb(CoS)2,-0.8140856027500007
16,BaAlSi5N7O2,-1.805304950937499
17,Si3P2Pt,-0.3719417977777771
18,HoMgRh2,-0.73567524
19,Er4Zn5Ge6,-0.5348447063333334
20,Lu3Ru,-0.39629680687499924
21,Lu5Ni2Sb,-0.589160674375
22,Pr5As2ClO10,-3.2081585513888893
23,KNiPH2O5,-2.0123757956333335
24,K30Ga9As19,-0.4796686762500002
25,Ba3Ca3(MoN4)2,-1.1113949937500003
26,Fe3N,-0.15822943000000045
27,Th(SiRu)2,-0.9216550099999992
28,KHoBeF6,-3.9015904908888888
29,Sc5Cl8,-2.155986328846154
30,AgTeO3,-1.1485025948333338
31,NaEuTi8(PO4)12,-3.0440971761174067
32,Ni3S2,-0.5718173232499992
33,UTcC2,-0.17926274937499898
34,Hf2Zn,-0.17770741333333362
35,Y3Tl5,-0.31870111770833365
36,DyCdGa,-0.5129636413888888
37,Gd2TiO5,-3.8283763654166663
38,RbV3Cd3O11,-2.1008986015277773
39,ZnSiH12(OF)6,-1.8740728659615387
40,ZrScFe4,-0.2930441875000002
41,Li2SmTl,-0.25250188875000035
42,RbCO2,-1.8967016821875005
43,Lu(CoGe)2,-0.5812641280000002
44,Pm2ZnSi,-0.42785327124999917
45,Ho6H40N8O49,-1.5706781861650487
46,Na2CoP2O7,-2.4720867161266766
47,Sr(CoGe)2,-0.42725011933333334
48,Ir2S3,-0.6673772178749993
49,LiBH4,-0.45020992291666734
50,SrMg3SiN4,-1.1451167111574074
51,Ba2GaBiSe5,-1.4934515515798605
52,Nb2Pd,-0.23208271999999988
53,La2O3,-3.8741430962500005
54,Gd3Sb4Au3,-0.9209947189999994
55,K2Sn2Hg3S8,-0.7899911633999996
56,Tb(SiIr)2,-1.094703982
57,PrScO3,-3.8814548554999995
58,Er2(Ga3Co)3,-0.48115236589285715
59,Ti4NiBi2,-0.2826252176190473
60,Ta2Co3Si,-0.48567295416666667
61,ThSi,-0.658431375000001
62,TbAgTe2,-1.131845967916667
63,K2Ag2SnSe4,-0.847447250412037
64,Zr3As2,-1.0542818800000007
65,Ba(GdS2)2,-2.4378958224999994
66,CuSb2(XeF8)2,-2.004038634285714
67,LiYbGe2,-0.5566613795833333
68,SrLaCuS3,-1.968019794756944
69,ThAs,-1.3958089425000004
70,Lu10Mn13C18,-0.34780363153910865
71,Ni2W4C,-0.08630230499999973
72,SmErIn2,-0.4581067662499998
73,NdCdHg2,-0.41312072749999995
74,DySCl,-2.5410734343750008
75,Na3Cd2IrO6,-1.5417907766379308
76,SrZnIn3,-0.29580961133333333
77,ErTl,-0.3074840466666666
78,Yb2Cu2O5,-2.2357361369444444
79,Ti6Tl5AgSe27,-0.9567222478619124
80,K2Ga2Sb3,-0.43573210853571454
81,KCo2As2HO8,-1.6787224480714298
82,TbPmRh2,-0.7582788693750002
83,Nd2VFeO6,-3.006319758
84,ErPd,-0.9311443349999999
85,CuTeO4,-1.2306521233333338
86,K3AlH6,-0.30967047139999976
87,K3Cu2P4HO14,-2.3212318086388883
88,SrMnP2O7,-2.9198062771603968
89,Ba(InSe2)2,-1.3042863795535717
90,Li2MgMn3O8,-2.21841566110427
91,Na3AsO4,-2.0528031474568964
92,Sc(CoSi)2,-0.7616632949999996
93,PrInAg2,-0.36179396458333324
94,Cs5Mo8P(H3O16)2,-2.0085958983267025
95,Na3CoC2ClO6,-1.9378584967042438
96,YbAu,-0.9552384799999998
97,Gd2TeO2,-3.287840956000001
98,ScBRh3,-0.7533562668333331
99,Ga3Te3Cl,-0.799382513928571
100,UTeS,-1.3749039285416675
101,Sr2AlCO3F5,-3.507532854444444
102,RbRuF6,-2.4549817609374998
103,NaHSeO3,-1.541744074607579
104,K2CoH12(SeO7)2,-1.401146025667338
105,Pr2Co12P7,-0.7300416634920642
106,RbTlF3,-2.4815437996666665
107,Ca5(GaSb3)2,-0.8428128884615387
108,Ti5Si3,-0.7434078789583332
109,Rb(CrS2)2,-1.1215789342857139
110,Rb2NaH5(CO4)2,-1.75415992466954
111,Sr10P6O25,-3.318402235162603
112,Eu4C2N4F5,-2.5218707351666656
113,Ca3La3(BO3)5,-3.4255014665705135
114,Sr2CaReO6,-2.921471226333334
115,Ho2AgRu,-0.378377105416666
116,BaAsAu,-0.9308602883333332
117,Ho3(Si3Pd10)2,-0.8335073410344821
118,Hf6Si7Ni16,-0.7810808551724149
119,LaGa4Fe9C,-0.22389481599999972
120,TaBr5,-1.3880430351388897
121,Pb2SeN2O9,-1.2122751469531263
122,Er2ReC2,-0.4493006934999997
123,Ba3LuRu2O9,-2.661026441333334
124,Ca(HO)2,-2.1656756200000005
125,Sr(Si3N4)2,-1.3035382451111124
126,LaFeGe2O7,-2.4824297818181806
127,Sm3GaO6,-3.50315557925
128,Ni(AsO3)2,-1.6030796511111107
129,Sr2LiFe2N3,-0.6659156364583332
130,In2Ni3S2,-0.550785272321428
131,YNb(TeO4)2,-2.5230059795138886
132,KGdF4,-3.958603658
133,LiAcHg2,-0.4151358514583332
134,Nd4Au2O9,-2.7699006611666674
135,Tm3Sb5O12,-2.6829402097499995
136,Na12SnGe8,-0.1537396166009853
137,KNa2LiTi2Fe2(SiO3)8,-3.002929211652586
138,Er(AlGe)2,-0.393140262
139,Sc7CI12,-1.3584064607499997
140,PrDyTl2,-0.36493217291666635
141,Na2UO4,-3.0282734790147785
142,Sb28(Mo3Ru)3,-0.22689600337499982
143,Nd5Pb4,-0.5751157308333342
144,Hf2N,-1.3637661166666675
145,Zr5P7Pd9,-0.9343785863492068
146,Er2Pt,-0.9747370091666673
147,MgCuSb,-0.3356988333333331
148,La2Bi,-0.760345836666667
149,BaHf(SiO3)3,-3.5198809103571427
150,Pu2SnHg,-0.2715635825000007
151,Cs2AgAsS4,-0.8859016437535914
152,KZr6MnCl14,-2.046097660724139
153,P2RhClF6,-2.383876356541667
154,Ta2O5,-3.3355719614285726
155,CaAsPt,-1.0194151783333334
156,Ce4Ni4Bi3Sb5,-0.7250593356249997
157,Ti4CN3,-1.6463859622916655
158,PaIn3,-0.11602845500000036
159,Tm(CoSi)2,-0.8038149253333323
160,Li3La3(MoO6)2,-2.9008626945000002
161,La2GeI2,-1.4452525250000001
162,PaInRu2,-0.3704083699999998
163,Ce(LuS2)3,-2.3745366023749996
164,UC,-0.12475041000000076
165,RbCNO,-1.2372303431249998
166,Pr2SO2,-3.421169370625001
167,Sn3F8,-2.708665987272727
168,NaInTe2,-0.7809838816379306
169,Ho2OsC2,-0.3970436454999998
170,Rb2SnO3,-1.9232125550000003
171,YSe2,-1.8726754921180546
172,SmSI,-2.102889302708333
173,EuAg(WO4)2,-2.1912055193055564
174,Na5BiO5,-1.6743984525235114
175,Eu2ZnGe3,-0.5639209025000002
176,ZrVW,-0.08477025833333347
177,Al12Re,-0.14340006576923076
178,K3Nb(SO4)4,-2.2268444801666667
179,Ce3CoGe2,-0.6235594712499998
180,Sm3(SiNi3)2,-0.5846897527272716
181,PmTlAu2,-0.5693311777083334
182,KLaCr2O8,-2.3558258889999997
183,K3SbS4,-1.1377598751875002
184,DyZnIn,-0.43222029000000006
185,Ho5Pb4,-0.5120880300000002
186,Tb6IrBr10,-1.9608782132352947
187,Pr2Ga12Pd,-0.42493058166666675
188,Rb2U3(TeO7)2,-2.8725520069047623
189,BaSc2O4,-3.689649590238096
190,Eu5Si3O13,-3.411062466428574
191,Na3(GePt)4,-0.5030804081504702
192,Rb2PbCl6,-1.7062680716666665
193,Cs2KTlF6,-2.7318256137195402
194,FeCoP,-0.550496071944444
195,UGaNi,-0.301427698055555
196,CeAlPd,-0.7825668116666668
197,SOF2,-1.95396700234375
198,GdYCo4,-0.14412173944444362
199,BaSe,-2.283762816171875
200,LuFe2SiC,-0.5279473690000017
201,Nd17Au36,-0.7675270916981132
202,SrPb3,-0.32301961166666615
203,Tl3Ga9S13O2,-1.1036677765972227
204,KPHO3F,-2.492554946261905
205,AgMo6Cl13,-1.283250404333333
206,Cs(MoS)3,-1.0348569589008625
207,Mn2InSnPd4,-0.4073459526077583
208,NaErS2,-2.0993840457004307
209,LuAlB4,-0.49943174319444356
210,SrLiAl3N4,-1.3190098355555557
211,PuSi2,-0.43757938000000013
212,RbInI4,-1.1435139056944448
213,Co3TeO6,-1.4251870475000012
214,Gd2AlNi2,-0.5157238500000005
215,Th(SiPt)2,-1.128287478
216,YbSb2,-0.7651729766666667
217,In2AgS3Cl,-0.8819882401488098
218,Ba8Li13GaSb12,-0.8965790576715688
219,Ca5(IO6)2,-2.3583321413157905
220,MgCdAu2,-0.4014887075
221,Dy2B6Os,-0.6538838847222218
222,Bi2PdO4,-1.408942188214286
223,Li8MnFe7(BO3)8,-2.3773494051652295
224,HCl,-0.8157151600000003
225,Cs2GaP4H3O14,-2.4140901315289747
226,LiPd2Pb,-0.42152898833333374
227,YCu7O12,-1.2542761403333338
228,VCoSi,-0.5758834350000003
229,Hg5(SbI3)2,-0.4390976148076922
230,ScAlCu2,-0.41294278624999947
231,Bi3Ru3O11,-1.544212079705882
232,KNp2F9,-3.74833015525
233,Sm(Mo3S4)2,-1.1756348073333338
234,Ba5Ru2Br2O9,-2.457765354722223
235,ScFeB4,-0.6702759906944445
236,Lu6Ti4Al43,-0.3208476294968556
237,Pr(AlAu)2,-0.7491345800000004
238,RbZn2HSe2O7,-1.6008077678605763
239,NdTlTe2,-1.2847037633333338
240,Be12W,-0.10411265846153893
241,Al2VCl8,-1.8714866172727278
242,YbF2,-4.46731385
243,Ca2GaSi,-0.5011535418749999
244,Cu3Hg2(Te3O8)2,-1.2650542792592587
245,VInO4,-2.2173742299999994
246,Sb2BrF15,-2.174285132638889
247,BaLa2O4,-3.582359615714285
248,TaPS6,-0.9111339516666668
249,Sm(AlGe)2,-0.4366428670000005
250,UCd(MoO4)4,-2.221774087272728
251,ThTeO,-2.994862230000001
252,Sr4Zn(IrO4)3,-2.0946993633333335
253,EuZrF7,-3.937022509166667
254,EuInPt,-0.8330087641666672
255,FeBW,-0.3634385030555561
256,BeRu2W,-0.20697665624999928
257,CeBe13,-0.15135283964285762
258,Nd2Ta2Cl2O7,-3.4377216042307692
259,Sc2BeB2Ir5,-0.8217729248333328
260,K3Dy(AsS4)2,-1.187567381714285
261,HgSO4,-1.4711955021875003
262,NaPr4I7N2,-1.712648131003695
263,Pb(ClO3)2,-0.7205506644444447
264,Ca3TeO6,-2.812127167
265,La2Sn3,-0.7558388355000005
266,La4CdPd,-0.4014995312499998
267,Nb3FeS6,-1.3059533743750003
268,KLiZnO2,-1.813746874266667
269,Yb3PbO,-1.8436874009999997
270,TcF4,-2.3248871907499997
271,CsLiF2,-3.0093263278160918
272,Sr5P3O12F,-3.4303780736111102
273,TbMg2Cu9,-0.1760312245833333
274,BaGaH5,-0.3654740667857145
275,Mg149Sb,-0.029914272066666664
276,KIn9Co2,-0.057518840249999904
277,K3CoO2,-1.260138073166667
278,TlCdCl3,-1.4434906111666668
279,Y4MgPt,-0.5161758136111109
280,Na15Sn4,-0.15516229517241362
281,Li2EuGeS4,-1.4737934461458329
282,Eu3S4,-2.1345082053571423
283,Er2Al4CoGe2,-0.634529792777778
284,La2Te3,-1.8574179217499995
285,Rb2Ge4O9,-2.1205917313333336
286,Rb3DyF6,-3.53747842075
287,UTeAs,-0.8308528183333337
288,Cs3H12N4F3,-1.0867220148315047
289,Dy5CuPb3,-0.49057378666666707
290,YMgAg,-0.29161236666666684
291,CePmTl2,-0.3088662347916662
292,ThGe,-0.7668017224999994
293,SrPt5,-0.5232423277777775
294,PrGa,-0.57916877125
295,YbPrZn2,-0.3357550362499997
296,MgPbF6,-2.8594418218749995
297,NdInPd,-0.7815985688888895
298,Sr14MnAs11,-1.0843063761063219
299,La5C2Cl9,-2.3013023853125
300,Bi3PO7,-2.080737238030303
301,LiMnGaF6,-3.0323443889367816
302,Be2C,-0.2319220400000006
303,Ba2Pr(CuO2)4,-2.0251915870000006
304,LiGeRh2,-0.6493228220833336
305,U(FeB3)2,-0.5170899994444448
306,CsHoZnSe3,-1.6475107749937135
307,RuCl2O,-1.2127369000000003
308,BiSBr,-0.8869133027083329
309,K4Sn9,-0.22285317823076958
310,CsPbBr3,-1.6368928165862073
311,Al2PdRu,-0.8092256212499995
312,Al(SeCl)4,-1.0319158957638888
313,Rb6LiPr11Se12(Cl4O9)4,-2.3774122922738825
314,Cs2DyAgCl6,-2.217991282252873
315,LiTiS2,-1.674923768229167
316,YB2Ru,-0.5982739987499999
317,ThTe3,-1.2897099924999997
318,Ta5Ga3B,-0.42127004407407437
319,TbLuIn2,-0.4258903424999998
320,K4Ba2SnBi4,-0.5470112597272728
321,Sr17(Li2Hg3)3,-0.3319495579166667
322,CaTiFe(PO4)3,-2.896471099074074
323,Sr2P6Rh7,-0.8880046405555561
324,Sc4FeBr5,-1.549098703375001
325,Sr2PrBiO6,-2.7692569933333333
326,ScAgSn,-0.46073329722222195
327,ZrNiH3,-0.5372645220000003
328,RbTaO3,-3.0338324940000008
329,Mg3Ir,-0.3440594120833336
330,KBa2Cd2Sb3,-0.7748522222500003
331,SrSn3Sb4,-0.36765027583333376
332,RePCl8O,-1.3199023273484842
333,Yb7In(CoGe3)4,-0.5540128941666668
334,DyAsSe,-1.5921199974479177
335,Rb2Sn3(SbS5)2,-0.8499808238970584
336,ErSnRu2,-0.39389415625
337,K2WCl6,-1.7578830606666667
338,CuPt7,-0.04387548124999974
339,HoSnRu2,-0.3753979862500003
340,Er6NiI10,-1.4106781323529414
341,CeCoSb3,-0.6736430720000002
342,CaPrCd2,-0.37231332625
343,AsPd3Pb2,-0.33390359583333346
344,NaAlH2CO5,-2.1834197766551724
345,Dy6GaNi2,-0.35617469583333317
346,BaIn2Pd,-0.56997551625
347,Y(SiAu)2,-0.5311787813333332
348,Ac3Tl,-0.09738155770833368
349,CsMoN2,-0.5973650576077594
350,Ho2ReB6,-0.644730016388888
351,BaZnCO3F2,-2.710566639375
352,K2Y4Sn2S11,-1.7539968414232454
353,Pm2CuSi,-0.3655949287499993
354,YbHfRh2,-0.8061952950000002
355,KCrF3,-2.9337907701
356,Li4Nd3Ge4,-0.6679932893939395
357,Zn3Co4(SbO6)2,-1.6747992949999997
358,TcRh3,-0.06858200000000103
359,Dy2S3,-2.370123479875
360,YTmTl2,-0.33273975749999973
361,Li3ScF6,-3.6235941916666663
362,RbSbF6,-2.909703090312499
363,ScNiBi,-0.6261232883333333
364,YbNbRu2,-0.16384042750000027
365,Ca(GaP)2,-0.6729073813333329
366,LiFeF6,-2.1840759035416664
367,Pm2AgRu,-0.23907965916666551
368,TbGdAl6,-0.4362233812500005
369,LaAl2,-0.5010386950000001
370,WI2,-0.4619296116666665
371,Ba2Ni5Ge4,-0.44986124272727324
372,Na2IrO3,-1.5486287488505752
373,YGeIr,-0.937951308888889
374,RbScCl3,-2.3025846365
375,Eu(GeRu)2,-0.5511961249999999
376,ThCo9Si2,-0.33477048958333455
377,TlHg3Sb2Br3,-0.6228331048148148
378,SmCrTeO6,-2.524807124444444
379,Bi12Rh3Cl2,-0.37123639676470577
380,Er6H40N8O49,-1.5721622586893214
381,SbBr3,-1.008699585
382,HF,-1.6950816037499998
383,Cr3NiP4,-0.5169267354166669
384,LaAsS,-1.825759551041667
385,UMn5P3,-0.6663042785727968
386,Ba3SbN,-0.9259719760000003
387,Mn4Cr(Co2Ge)5,-0.2354792938362067
388,NiSnF6,-2.6395651875000006
389,Al3Cr,-0.1403820824999995
390,CaNi(GeO3)2,-2.2760526775
391,Tm2C(NO)2,-2.5298346876190467
392,Tm3Ir,-0.6320148906249994
393,CsSmGeSe4,-1.4303080599722904
394,NbPt2,-0.6869240833333331
395,ScCoP,-1.1438038336111116
396,Ba2P7Br,-0.8329826510833336
397,ZrSbRu,-0.6308547316666674
398,Sr5As3O13,-2.672498711587303
399,Ce3InC,-0.32351530699999953
400,Cs2U3P6(HO5)4,-2.6665757007389166
401,Yb2HgPb,-0.6570497887500002
402,TbErIn2,-0.4499973525000005
403,KTh(SbSe3)2,-1.1952597657062498
404,PuNi3,-0.24284424416666658
405,YbNdCd2,-0.3743295175000001
406,TbGeRu,-0.713991006666666
407,BaNaPO4,-3.007455521412151
408,ThRe2,-0.09637375083333193
409,NaH4C3N3O4,-1.1105321144367812
410,TmInPd,-0.8108845599999996
411,Dy2GaCo2,-0.41163853150000024
412,InTeClO3,-1.6761797970833339
413,CaSe2O5,-1.9145079593359373
414,Mg149Tl,-0.02861262275555551
415,ZnBP2H4NO8,-2.033474704460784
416,BaNi9P5,-0.6675310507777785
417,DyH3,-0.7320232983333336
418,MgGaAu2,-0.42971256562500004
419,KLi3Si12(SnO15)2,-3.0408515005833343
420,NaHf2CuSe5,-1.4148498586967193
421,RbGdSe2,-1.9762405205468747
422,CdBiBF10,-2.560453038782051
423,Na3Sc2(PO4)3,-3.075348785982759
424,Rb3Pr2(NO3)9,-1.4703518031097553
425,Rb2BrCl6F,-1.1815350224999999
426,GaSbO4,-2.0545152529166657
427,UB4W,-0.5034315936111101
428,BaSi,-0.38598382750000004
429,GdFe5P3,-0.714500008055555
430,LiMg2Pt,-0.6285750908333334
431,EuGe3Rh,-0.63038327
432,Rb2Be3Ni2F12,-3.090916539868421
433,NaCl3,-1.2916478641379312
434,KLu(CO3)2,-2.5767276263
435,KHo2CuSe4,-1.7344577702968746
436,Na3CoAsCO7,-1.9363070101657829
437,Ba(ErTe2)2,-1.767834745357143
438,Zn3Ru,-0.15152305375000008
439,PaSe3,-1.2071475267578125
440,CaCu2F8,-2.367650238181818
441,Mg(HO)2,-2.0095060919999996
442,KMo(PO4)2,-2.5227143135138888
443,Ba(GaPt)2,-0.8137107109999995
444,RbAg(NO3)2,-1.0577076034166673
445,Sc3CoC4,-0.4491226412499998
446,TaW,-0.06753659500000175
447,Tm11Cd45,-0.1987060519345236
448,Y(BH4)3,-0.4206495354947908
449,TiTeSe,-1.2124700852256947
450,Cs2LiTbCl6,-2.4899195879195397
451,SrTcO3,-2.455559273833333
452,ZrCd3,-0.10367936750000029
453,Eu2GeO5,-2.8207510925
454,V6Ga5,-0.21309670340909034
455,Ce2NCl3,-2.4198333133333336
456,Mn4SiTeBr2O7,-2.083373574114942
457,Mn5B2P,-0.480750059540231
458,Gd2Sn2O7,-2.995185214545454
459,Mg2V2O7,-2.6806313890909093
460,KNiAsO4,-1.7969505979285714
461,SnO,-1.6297024024999995
462,Gd2Tl,-0.3099329761111112
463,Na3GeSe3,-1.0688136666694885
464,Np(Al2Cu)4,-0.2232422514423078
465,Cu4SnP10,-0.12301635922222166
466,Sc2GaB2Rh5,-0.8908090585833321
467,TlHPd3,-0.2607580776666666
468,DyCu,-0.2482322400000001
469,Na4UCr3O14,-2.2316344211912233
470,La(CoB)2,-0.4789292946666663
471,Rb(TeO3)2,-1.6374384313888883
472,LiMn6P7O24,-2.5991175691908643
473,Ho(Co2B)6,-0.34783233552631626
474,Mg149Se,-0.03292036261562506
475,LiAl(Si2O5)2,-3.243760349895834
476,BaV2TeO8,-2.3999003468750004
477,Ag3AsS3,-0.315364011339286
478,SrCo2(AsO4)2,-1.9627644297435909
479,Tl4SiSe4,-0.6732880161342586
480,Tl3AgTe2,-0.40181729486111095
481,Zr2Ni12P7,-0.7382876030158736
482,NpSe,-1.2989731955468766
483,Cs2ZrCu3F12,-2.7468541044923374
484,NbNiP,-0.8393726344444445
485,Rb2Mo2P2O11,-2.441045060833334
486,K4Na2(Si2O5)3,-2.9150366027816097
487,NaPmAu2,-0.5952748635129308
488,Pm2GaRu,-0.33133962687499974
489,LaMoClO4,-2.713939755892857
490,Pr3SnN,-0.9924645509999998
491,La(BOs)2,-0.4539265256666667
492,Cr2TeO6,-2.022344022777778
493,Sm5Ir3,-0.6895768325000002
494,U3SiPt5,-0.7307671494444432
495,Ce5C2Br9,-2.0144664985937495
496,Rb2NaErF6,-3.6059004916551722
497,Er6MnTe2,-0.6734849031034484
498,Tl2Pt2O7,-1.150827483787878
499,La2GeO5,-3.3301412653125
500,Er6Ni20P13,-0.917274380085471
501,SrCuSb,-0.7663152038888891
502,LaGeI,-1.263786938333333
503,In3Ru,-0.14073145875000037
504,ZnRhF6,-2.1077489106250002
505,Cs2Au2Se3,-0.8783383746990455
506,GdCdAg2,-0.27758282333333284
507,Na3Mg3In(SO4)6,-2.2560300798217616
508,Y5(FeTe)2,-0.7485332981481486
509,Li3Lu3(TeO6)2,-2.7892111211249997
510,VSb(SeO3)4,-1.540754288576389
511,Gd(AlCu)6,-0.3552262753846154
512,USO6,-2.736614801328125
513,Cu2(SO4)3,-1.4625912511397066
514,LiSiRu2,-0.3529243333333332
515,Th6CBr14,-1.9176285557142863
516,BaMn5(SO4)6,-2.1581183146779233
517,La6Si7Br3,-1.1557235882812504
518,SiAs,-0.07200912000000059
519,NaSm3Ti2(SbO7)2,-3.119376271282654
520,DyThFe14B,-0.10748244421568763
521,KGeAuS3,-0.8482190212291668
522,Na3U6CrF30,-3.7535764972413785
523,Nd11Cd45,-0.2735794499107142
524,Al2H32S3O28,-1.569131366682692
525,SnSe,-0.6685497174218749
526,K6NbTlAs4,-0.4695597996944443
527,LiCaFeF6,-3.3176905009259254
528,Zr5CuPb3,-0.28750514833333324
529,Pd(Se4Cl)2,-0.6257312069318182
530,ZnPd,-0.5762806899999999
531,ZrSnTe,-0.8209886766666674
532,Tl(WO3)6,-2.143373307333334
533,Er3CoSi3,-0.7677492878571428
534,K2ReCl6,-1.6840062534444442
535,Rb2U(SiO3)4,-3.222836959736843
536,NbGaOs2,-0.2038171543750007
537,LiIn2Pd,-0.4504737558333334
538,Sr2IN,-1.2753018583333326
539,Er(Ni2P)2,-0.8368066588095238
540,ErB4W,-0.6050559969444448
541,Gd2NCl3,-2.481299335833333
542,Li2ErIn,-0.269369399166667
543,KSiSbO5,-2.5400638691250004
544,TcAgO4,-1.5277039327777768
545,BaSiAu,-0.5554280733333332
546,Rb2V3O8,-2.4520179680769236
547,Li3Ag,-0.15702178666666677
548,Sr3YRhO6,-2.917557888787879
549,NaIn(GeO3)2,-2.127569738655173
550,Li3AuO3,-1.671150450357143
551,Na2OsO4,-1.75060399544335
552,Rb2BiMoPO8,-2.324027051602564
553,K4I2O9,-1.4257720088000008
554,Hf23Se25,-1.4040681549707028
555,Sr2BN2Cl,-1.7095460187499991
556,Ni3Mo2SeO11,-1.6086482869025736
557,BaUI6,-1.4900038662500004
558,Cu2SnHgSe4,-0.507914574921875
559,Ti3(Ni10B3)2,-0.4257740177586207
560,HfRh,-0.8583913900000013
561,TaFe4W,-0.11057572166666556
562,Na2CrNiF7,-2.870085205509404
563,Dy3Rh2,-0.7666350421428572
564,Nd(CuGe)2,-0.5367518580000002
565,Li2CaTa2O7,-3.209821499722222
566,LaBr3O7,-1.076500980681818
567,Dy2Mo4O15,-2.5220771261904753
568,IrI3,-0.44097063000000025
569,NbFeP,-0.8765472077777771
570,Th2AsNO,-2.490040879
571,Ca3Sn13Rh4,-0.5030336207499999
572,Rb2BiPWO8,-2.353356825448718
573,Ba3RuN3,-0.6075384014285713
574,Nd2Ni12P7,-0.7422544392063493
575,LiYSi,-0.5893936755555558
576,Ba4Na(BO3)3,-3.053156837885396
577,ZrTl2S3,-1.2328687543402772
578,ThC,-0.27634216000000045
579,Cs6U5(AsO7)4,-2.800428881106655
580,ReN2(OF2)4,-1.6402554509166671
581,LiPm2Sn,-0.44844138583333315
582,LaCuSb2,-0.8267682850000009
583,KTm(MoO4)2,-2.553142176430556
584,GdAgGe,-0.6497083450000013
585,ScRh3C,-0.4951886369999997
586,Mn12Ge4N3,-0.2631161647459177
587,Ba(CuSb)2,-0.5424667650000004
588,Tm2AgRu,-0.41476573124999927
589,K2PrCl5,-2.550363245125
590,Gd3SOF5,-4.005219381562502
591,TlInAs2O7,-1.7357126762121207
592,KLaGeS4,-1.5924946357857144
593,RbLiS,-1.3452235163194448
594,Ce3Pt4,-1.0874826164285716
595,PrSnIr,-0.766245208888889
596,YbSn2Pd,-0.71015992375
597,La2InCuS5,-1.7111974317361112
598,Ca4As2O,-1.8127497364285712
599,HoAsO4,-2.851942733333333
600,TiFe2Ge,-0.4796471020833337
601,Er(SiRh)2,-1.11451713
602,AlAgSe2,-0.8552725878385417
603,TiGaPt,-0.8137034286111108
604,Hf5NiSb3,-0.5893369522222227
605,Li2Ti3ZnO8,-3.0603374724404753
606,Mo2P2O11,-2.2648107324444444
607,BaSb3,-0.6914075200000003
608,InSe,-0.7459355586718752
609,K3BiO3,-1.6843301366428574
610,RbSr2Br5,-2.394429330729167
611,InSb2S4Cl,-0.7876234321874991
612,Re3P4,-0.3813626069047617
613,Er3Sb4Au3,-0.8552355135000006
614,MgH6(SO4)4,-1.7509649387962967
615,MgZnRh2,-0.43236927999999963
616,Sm(FeP3)4,-0.5950853491176472
617,BaAl2O4,-3.448151519642857
618,Sr2HoTaO6,-3.612131800833334
619,Zn3P2,-0.18831408583333342