,formula_pretty,formation_energy_per_atom
6612,Rb2Ge2Se5,-0.9600653810243058
6613,PaNi3,-0.4106881237499991
6614,Ta3PbS6,-1.346140738874999
6615,CaY2(GeO3)4,-2.8210574796491237
6616,Sc2TiB2Ir5,-0.8943640981666661
6617,Ca6Al7O16,-3.409617604137931
6618,SmAgPb,-0.4462468238888893
6619,EuZn,-0.25572819750000075
6620,Sr2B2O5,-3.208269813240741
6621,LiMgH6Ir,-0.5195619062037038
6622,LiCo(PO3)4,-2.436720724120371
6623,Li2CoSiO4,-2.5142814302083334
6624,CeMgZn2,-0.28156279375000004
6625,V2CrTc,-0.24177397000000056
6626,Ba3Ga2B10H4O23,-2.708075393253967
6627,KLiTbF5,-3.8118221998541673
6628,Y2MgNi2,-0.3723383306666669
6629,Li2Ga,-0.2990176330555556
6630,Li2RhO3,-1.7550583119444447
6631,LuGeRu,-0.7374937150000006
6632,La7ZnNi2,-0.21872010550000026
6633,CsReN2,-0.3788103901077591
6634,MnNiP,-0.5552310079214564
6635,V2OF5,-3.0465711963541664
6636,Na2VPCO7,-2.435494583869732
6637,UTe2,-0.95899488
6638,Rb2UCr(IO6)2,-1.9450915911111106
6639,Na5H3(CO3)4,-1.9119994028232756
6640,Ba3BiIrRuO9,-2.1565808566666673
6641,CeAgHg2,-0.2841064354166667
6642,K2YCl5,-2.5379565587708335
6643,Ni3(BiSe)2,-0.3673819278125003
6644,NdBPt3,-0.8672517138333333
6645,ZnNi10P3,-0.42569459309523794
6646,EuNpO3,-3.41831023925
6647,Ba3MgTa2O9,-3.4162774223333345
6648,NaCeTi2O6,-3.39926132582184
6649,Sr5V3BrO12,-3.022215161468254
6650,Hg3(TeBr)2,-0.6152065307142855
6651,TbNiSn2,-0.5842436587499998
6652,CuF2,-1.8129397616666667
6653,RbBi(MoO4)2,-2.018269265625001
6654,Pr2Cu(GeO4)2,-2.657213984230769
6655,BaAgSb,-0.8485098338888886
6656,Ca6Cu2Sn7,-0.5471868983333337
6657,TmZrRu2,-0.5677792141666655
6658,CaSnAu2,-0.5924162612499999
6659,Er3(In2Co)2,-0.3726328566666663
6660,K2Nb2As2O11,-2.4117134524117643
6661,Ca3C3Cl2,-1.170947659374999
6662,Li4CoTeO6,-1.9888476531944452
6663,GdTlTe2,-1.2884786008333338
6664,CaPmMg2,-0.09543651437499978
6665,Tl5Sb10As3S22,-0.5488687900104168
6666,BaCdGaF7,-3.2122096385
6667,Na2H4(SO4)3,-1.7881892142846878
6668,La2Ga7Au,-0.5888280922500002
6669,Zr6Co16Si7,-0.6504633858620683
6670,CsCaF3,-3.7228381770862073
6671,CsAlTe3,-0.908093362086207
6672,Fe3Mo3N,-0.18579819464285866
6673,Y2TeS2,-2.1498826099166664
6674,Tm2Sc3Si4,-0.7907466487037035
6675,CaSnPt,-0.9155956508333336
6676,Sr(BiPd)2,-0.5997327493333338
6677,H7C3N6Cl,-0.44794376617647075
6678,InH12(NF2)3,-1.3980360155681821
6679,Eu2B2O5,-3.14748025925926
6680,YbPmRh2,-0.6758208618749997
6681,Ba2GdTaO6,-3.544792874000001
6682,Li2PmSn,-0.45968390979166696
6683,RbErBeF6,-3.898923690833333
6684,ErB3Mo,-0.6398854305
6685,V2Cu2O7,-1.8102309545454551
6686,KZr6NCl15,-2.2231298030652167
6687,ZrNbC2,-0.6609898399999992
6688,SmHoTl2,-0.3512143979166664
6689,Ba2Ca(BO3)2,-3.224688605303031
6690,TePb3Cl4O3,-1.5862904045454547
6691,Sr2Pd,-0.44065228444444493
6692,ThSiRh,-0.9922998649999997
6693,PrCu5,-0.14822807583333328
6694,CaMnF6,-3.200238882866379
6695,In7Cl9,-1.2404526592187501
6696,TiF4,-3.6880844846666663
6697,NaMnCu3Se4,-0.5948115259841953
6698,CsNa5(WN3)2,-0.6048159832635461
6699,Na6MnS4,-1.192553362249216
6700,GaCl2,-1.4300756045833334
6701,Li9Mn3P8O29,-2.630706833886934
6702,CuAu,-0.04813772499999969
6703,Sr3CrN4,-1.09291110765625
6704,Dy(BIr)2,-0.7426740356666656
6705,Ti4(Ni5O8)3,-1.8515370491472876
6706,PrSnRu,-0.500506446666666
6707,KV(CuS2)2,-1.0715263813125002
6708,Nd2H6Se7O20,-1.6503561116830368
6709,Li2CuF6,-2.224279637407408
6710,YCu5,-0.19024762111111096
6711,Be2Ru,-0.332091841666666
6712,YTlS2,-1.7405934190624999
6713,Na4Be2Si6Sn(HO5)4,-2.676474367600186
6714,Y2PdRu,-0.6231990995833332
6715,Fe6H12Pb(SO7)4,-1.6277210869117644
6716,Tb3Pt,-0.6957292156249997
6717,BaHf(PO4)2,-3.3509650372222217
6718,Ba(GaSb)2,-0.6049241979999997
6719,LiEuP,-1.0001825547222225
6720,In2As2Cl2O5,-1.7503398804545462
6721,Nb3Ru,-0.19327814124999954
6722,MgIr2,-0.303188191666667
6723,ZrH6O3F4,-2.255852120892858
6724,Nb3Tl2Cl9,-1.6120080565476194
6725,TmTlRh2,-0.5811745799999999
6726,ZrFe2,-0.28044591166666777
6727,ZnCuPd2,-0.4042525499999998
6728,EuAl12O19,-3.4283797873437507
6729,K3AuO,-0.8923022507999999
6730,Li2HfO3,-3.1678989494444445
6731,UFeB4,-0.5420673331944433
6732,BaAsHO4,-2.2576059659821426
6733,PaHgAu2,-0.30060724375000003
6734,Hf4Fe4Ge7,-0.49079170300000025
6735,TbYTl2,-0.36411545333333306
6736,Ho2Au,-0.6435962741666668
6737,Gd11In9Ni4,-0.5131907520833335
6738,GdAlGe2O7,-2.857296123863635
6739,YTl,-0.36880072499999983
6740,Gd3CCl3,-1.8071752117857147
6741,CsMn2(PO3)6,-2.5895120360664112
6742,Hf6CCl14,-2.15072817452381
6743,YAu,-0.8856769583333328
6744,CeAlCu,-0.3234990950000001
6745,YbVO3,-3.1175179000000015
6746,Ca3(AlP2)2,-1.008516343703704
6747,TbCuSn,-0.6058514533333336
6748,K2(NbCl3)3,-1.8798988915000001
6749,PrGaPd2,-0.8467342618749996
6750,BiIrSe,-0.4080549816145845
6751,Te2As2Se8S(OF6)2,-1.6574715718287039
6752,Ba2Sb2O5,-2.4892236897222233
6753,Rb2Cu3(P2O7)2,-2.2363447584057967
6754,CNCl,-0.29445703944444307
6755,Er4Si9Ir13,-0.9934561726923083
6756,GdMgRh2,-0.6677300274999993
6757,CeSe2,-1.9175653415624996
6758,NpCo2,-0.07288386291666644
6759,BaLa2WO7,-3.2908940800000006
6760,La3GaS5O,-2.3952182838124996
6761,Rb3TlBr6,-1.5359978270833334
6762,MnCdCu4(GeSe4)2,-0.5463985185425639
6763,K2NaCoF6,-2.7424659492551724
6764,Rb3AsF6,-2.75329517625
6765,K(WO3)4,-2.235946094882353
6766,PmZn2Ag,-0.30008155854166674
6767,ZrGePt,-0.9839273641666667
6768,K2Mn3V2(HO5)2,-2.1497014694627956
6769,LaCu5,-0.1491183808333337
6770,Sr2HoBiO6,-2.864945624833333
6771,NaSr3IrO6,-2.467533215595611
6772,Zn8Cu5,-0.10845411461538472
6773,Pr3CCl5,-2.1615606563888883
6774,Rb3RuF6,-2.57989718225
6775,NdCdIn,-0.42479196999999996
6776,Na3ClO,-1.7091280369310344
6777,RbCuCl3,-1.4847153674999998
6778,YbTl(WO4)2,-2.263476197777777
6779,BaHo4Si5O17,-3.6448263081481485
6780,Na5Ga3F14,-3.0145225995572105
6781,Ag2PHO4,-1.5766132868750002
6782,Rb2SbF5,-2.8558689993750006
6783,Rb2NbCuSe4,-1.1925669842968745
6784,CsRe(Cl2O)2,-1.7318464028663794
6785,NaCd3,-0.07599653413793095
6786,CsBaVS4,-1.681703051133005
6787,MgCu2SiS4,-0.9571132659375001
6788,AlH15Br3N5,-0.7521206830208342
6789,FeP4O11,-2.4775033338020833
6790,MnB4O7,-2.753720564966476
6791,K2ZnGeO4,-2.04991182153125
6792,Ga3Ni2,-0.4082663765
6793,PBr7,-0.7208504088541665
6794,CsTaCl6,-2.0349346941163793
6795,BaHg,-0.5330331474999999
6796,PrOF,-4.131284147500001
6797,Tl3AsS4,-0.5471661346875001
6798,FeP4,-0.3717812881666667
6799,HoTlTe2,-1.2537095208333335
6800,Ba3(LiAs)4,-0.9277618530303031
6801,Sm2TeO6,-2.976674735000001
6802,Ag3S4(O3F)4,-1.6402967689130445
6803,Mg(FeGe)6,-0.14728404307692353
6804,CoSbS,-0.5984971272916665
6805,Gd2MgS4,-2.215442815357143
6806,CrSiTe3,-0.43894785199999975
6807,RbSb2PO8,-2.219326434027778
6808,DyInCu4,-0.27604598333333347
6809,Sr6Yb4(CdSb2)5,-0.9018324194000001
6810,YbGaPd,-0.8552920566666664
6811,Ca5Pd2,-0.5013671535714285
6812,Pr(TiAl10)2,-0.22942643442028948
6813,Li2FeP2HO8,-2.4223785218452383
6814,Lu14(InCo)3,-0.3213232719999993
6815,Na2Cd(GeS3)2,-0.9491344515321316
6816,Nd4CdNi,-0.23952485374999988
6817,NbSeF9,-2.792334676803978
6818,Eu2SnHg,-0.6523840099999996
6819,Dy3Zn11,-0.3387453721428574
6820,Gd2Co2I,-0.6879559389999997
6821,Mn2Be3Tl2F12,-3.075896698290986
6822,BaBPO5,-3.1171389942708334
6823,K(Nb2Cl5)4,-1.7397551850459767
6824,La9Sb16Br3,-1.2342255393750001
6825,Cs3BiSe3,-1.1545791772606218
6826,USO,-2.7812100193750005
6827,Ba(BiS2)2,-1.178563503373016
6828,NbNiAs,-0.5266133325000008
6829,K2H4Pd,-0.39013049371428565
6830,ZrMo2,-0.13858317000000042
6831,LuGeRh,-0.9927296616666664
6832,LaPd5,-0.5782237958333324
6833,Rb2MgH12(SeO7)2,-1.528989092893145
6834,KSiH3,-0.23661987660000036
6835,NdAlAu,-0.7393374433333335
6836,BaNaFeF6,-3.2778789604501912
6837,PaBr3O,-2.5481300415
6838,YbNi4B,-0.44346611236111083
6839,ErMgPd,-0.6984088833333336
6840,LiEr2Ir,-0.6210280808333337
6841,YbBr2,-2.4572844883333333
6842,SrMo3(PO7)2,-2.4502847586666645
6843,Lu(SiNi)2,-0.8118557780000003
6844,Mn(ReO4)2,-2.208455920266458
6845,Ti2MnIr,-0.7020663611494253
6846,NaDyTl2,-0.23278663830459756
6847,Hf2CoTc,-0.49525590874999814
6848,Sr2Si5N8,-1.3788835502222223
6849,Mg3Pd,-0.42137400041666684
6850,Rb3CrF7,-2.9445228263636367
6851,Bi2B8O15,-2.6267447043333334
6852,YB2,-0.5636299249999995
6853,Dy2Co3Ge5,-0.5858108899999998
6854,NaCd2Pt,-0.254224136637931
6855,K3FeS3,-1.1340674083392857
6856,CuAg2(PO3)4,-2.093638893508772
6857,Cd(PtO2)3,-1.0797970040000002
6858,Cs3LaBr6,-2.24996140412931
6859,Li4ZnIn2F12,-2.946871320964912
6860,YVB4,-0.702813821805556
6861,CdPHO3,-1.8826404452777785
6862,Ni2Te3O8,-1.4493023019230777
6863,BaFe2(PO4)2,-2.6358553001282057
6864,VRe,-0.2643633975000004
6865,Zr2Si4Ru3,-0.8482961491666651
6866,Al2Os,-0.5620938550000005
6867,Rb2Te(H6O5)2,-1.4271983372
6868,Gd4Ti(SeO)4,-2.9771442725160253
6869,Lu2MgAl,-0.24243971499999972
6870,H8Pd(NCl3)2,-0.8238250882352949
6871,PuPt,-0.7846548925000008
6872,LaPrTl2,-0.41007153166666654
6873,La3HfSb5,-1.139883587222223
6874,TbSmHg2,-0.47085103875000023
6875,Ba2Cd3Bi4,-0.46512227055555555
6876,Te4P2O13,-1.9295497056140356
6877,KCe(SO4)2,-2.5179175849374995
6878,TlCrNiF6,-2.6083056609259256
6879,BaUTe6,-1.0444178962499997
6880,RbFeSe2O7,-1.5163940133806812
6881,K3Nb2AsSe11,-1.0265097043988978
6882,TbSi3Rh5,-0.9620190964814812
6883,NdCuNi4,-0.2598704150000006
6884,RbU2SbS8,-1.317338620208334
6885,HoBRh3,-0.8051893158333329
6886,KrF2,-0.37586357333333353
6887,Sr2H6Pt,-0.6800090942592587
6888,SrPrFeRuO6,-2.476473786166667
6889,Ba3In2O6,-2.5032603363636365
6890,Ce2AlRu,-0.49988196166666654
6891,ScB12,-0.21114609192307598
6892,Gd2(Al3Rh)3,-0.8272469042857143
6893,TbZnSi,-0.6145662433333333
6894,Cs4Ba(PO3)6,-2.7823713385077298
6895,Th(BIr)4,-0.5771023368518513
6896,Rb3Sc2(AsO4)3,-2.4709183235
6897,LaMgHg2,-0.49251225875000015
6898,Sr2Ni(SeO3)3,-1.984128176024306
6899,Nd3CuGeS7,-1.752643882239583
6900,TmMgSn,-0.5157070772222223
6901,Dy2Sb5,-0.7745414128571427
6902,NpPt,-0.45557279937500184
6903,Sr12Sn4N3,-0.6691018255263155
6904,Na14Al4O13,-2.2618029350556177
6905,La2SnS5,-1.840050930703125
6906,Na2Cd(SO4)2,-2.0384421626425726
6907,Sn4P3,-0.04253020142857115
6908,Cs4BiAs3Se7,-0.922998016792026
6909,Ba(TmTe2)2,-1.7574072586904765
6910,Ti8Cu3Ni,-0.16076476138889007
6911,BaMoO3,-2.516793285
6912,Y4OsBr4,-1.5272130201851866
6913,SiH3I,-0.28333588350000055
6914,Zr5AgPb3,-0.24674520018518584
6915,Er5C2Br9,-1.8855555171875005
6916,K2U(WO5)2,-2.658005762233334
6917,LuB2,-0.6915363161111104
6918,Sm2ReC2,-0.32438147000000017
6919,Cr4GaS8,-0.9921230609615387
6920,NaLaS2,-2.1013832619504313
6921,U2Ni12As7,-0.3987482830952377
6922,Rb7SmFe6(P4O17)2,-2.536092720252977
6923,RbS,-1.1599389261458333
6924,Ba5Cr3O12F,-2.763061123928571
6925,Sc3RuC4,-0.4708762724999982
6926,Th3In,-0.16408323750000076
6927,Cd(InTe2)2,-0.6168214585714286
6928,LiTb6B3O14,-3.5945750048263885
6929,Ba2NdPuO6,-3.3890930139999993
6930,Eu8In3,-0.27332328909090947
6931,Ho6FeBi2,-0.4198390677777779
6932,Nd2TeS2,-2.16255250125
6933,BaTa6O16,-3.3800707934782603
6934,Sm2InGe2,-0.7358630099999999
6935,CeCo9Si4,-0.4663334732142853
6936,MnAg2SnSe4,-0.5308794819549201
6937,CsNb2BiO7,-2.6666130375391854
6938,ErAlAg2,-0.3357849233333332
6939,YInRh,-0.7472597377777777
6940,Yb2AgRh,-0.5143279416666666
6941,MgAlPd2,-0.8337653624999994
6942,Er2MgSi2,-0.6777108259999999
6943,Sr3HoRhO6,-2.9369182931818187
6944,LiAlSiO4,-3.210482538571429
6945,GaBi3Sb2O11,-1.8847293186764706
6946,Tl5Se2Cl,-0.7231086476692705
6947,Mg2Al5Cu6,-0.2396729353846154
6948,Hf3Ti2Ga3,-0.48001277989583446
6949,CsTiAlO4,-3.22177675089491
6950,BaIn4,-0.3528979760000002
6951,Tb5CoSb2,-0.7563636912499998
6952,Ca(BeN)2,-1.2492479570000008
6953,SmAsS,-1.7362794527083334
6954,SrInPd,-0.6529348180555553
6955,Y2Ga3Cu,-0.609205280972222
6956,CsTlO,-1.1640747204214559
6957,Tb2Ni12As7,-0.5393568678571424
6958,KPd2O3,-1.1387090771666675
6959,Ni3Ge,-0.28981357624999937
6960,KLa2NbO6,-3.4270264577999994
6961,Pm2SiPd,-0.6463879187499995
6962,Er(CoB)2,-0.5797635876666675
6963,Yb2P7Rh12,-0.9071157501587298
6964,CeAl4Si2Rh,-0.6169859206249999
6965,TbZn,-0.3435991949999999
6966,Ca8Al3,-0.15456566227272717
6967,Ca5Bi3,-0.8384796115625002
6968,CeMnSi,-0.48379201597701166
6969,Na3La9B8O27,-3.388532218999755
6970,SrWO4,-2.746216890277777
6971,HgTe2(OF5)2,-2.1090741329999996
6972,Eu2CoRuO6,-2.3409405660000004
6973,Tm(CuSi)2,-0.5422411673333329
6974,EuCu5,-0.11930797249999969
6975,CrB4,-0.30902792333333196
6976,BrO2F,-0.6397134150000001
6977,Ba3La2C5O15F2,-2.889657497962963
6978,CeFeSi,-0.5847749516666655
6979,AlPd5I2,-0.524211835
6980,SmBC,-0.4036949772222215
6981,PrAlSi2,-0.4436118012500003
6982,Ho2Ni2Sn,-0.6008308339999999
6983,Ba3(TaS4)2,-1.8447254324358966
6984,Li2PtF6,-2.4193545007407407
6985,CsZn4P3,-0.30461136974137926
6986,YNiP,-1.22031797
6987,DyOs2,-0.30846151833333363
6988,Dy6Al43W4,-0.27662960603773673
6989,Sc6Ni16Ge7,-0.6058358301724133
6990,Zr6Ga16Ir7,-0.6074830444827587
6991,Ba2MnReO6,-2.638054123293105
6992,Th(CoAs)2,-0.8015764939999996
6993,Re3Br7,-0.6518843137499999
6994,Bi2S2O9,-1.8540360904807704
6995,YMn2SiGe,-0.5614275415057477
6996,LiY(CuP)2,-0.7996764427777769
6997,LiHSeO3,-1.6033461046961808
6998,AlV6Ga,-0.15619885218749996
6999,BaHg2Pb,-0.43341274500000004
7000,K3TmV2O8,-2.7426966368333328
7001,Eu2SbAu,-0.9856632574999997
7002,Pr3SiAgSe7,-1.6199660873394102
7003,TiNiAs,-0.7735051752777776
7004,Ag2HgGeS4,-0.46781485197916695
7005,AlMo3,-0.24410424625000005
7006,KNO2,-1.2927115244999996
7007,BaZn2Si2O7,-2.8560361916666666
7008,Pr7Pt3,-0.7219432964999996
7009,YbSi3Ni5,-0.6311348972222233
7010,LaAg(MoO4)2,-2.262284641805556
7011,GdPaTc2,-0.08469163000000002
7012,La2(TlSn)3,-0.48065592312500005
7013,SmSi2,-0.5455101983333334
7014,Cs2H6CO6,-1.606411846390805
7015,BaSmFeCuO5,-2.4527926577777786
7016,NpSnAu2,-0.25517029343750064
7017,Cs3Cu2I5,-1.2034758613793102
7018,LuHfF7,-4.323551230277778
7019,AcMgTl2,-0.25451949479166647
7020,Tb(BIr)4,-0.5652475557407399
7021,EuPd3S4,-1.088800512812501
7022,Sr4As2O,-1.705868730238095
7023,YbHoRh2,-0.7916310700000002
7024,Mg3N2,-0.8955208407500003
7025,GdS2,-2.0718681629166675
7026,LiCdAg2,-0.17910460166666642
7027,K2NaInF6,-2.9974145297551726
7028,Mg149Sn,-0.030454555366666795
7029,Bi4RuBr2,-0.46931688785714293
7030,IrW,-0.30821922000000157
7031,CaAgP,-0.760724895555556
7032,ZrCoSi,-0.8344372733333323
7033,Th2Ni7,-0.4341119241666662
7034,SrCaI4,-1.9299383894444446
7035,PrLuSe3,-2.15839585640625
7036,Pr2Au5F21,-2.234838304107143
7037,ScNb2B2Ru5,-0.5213599708333334
7038,ZnSeO4,-1.3564531512239586
7039,U(OF)2,-3.6759151670000008
7040,NdI3,-1.6904022437500004
7041,TbFe5P3,-0.7347981738888889
7042,Rb2InAgCl6,-1.7125338211666659
7043,Zn3TeP2Pb3O14,-2.0878939867391297
7044,ScInIr2,-0.6347124837499996
7045,KSmS2,-2.1102096860624995
7046,Na3In2(AsO4)3,-1.9805931867327586
7047,BaAlGeH,-0.5565339550000004
7048,CsU2O6,-3.5086341836590043
7049,Zn(CrSe2)2,-0.8649466927678569
7050,Gd2CBr,-1.0896797831249998
7051,AlAu,-0.39553814375000007
7052,LiNb3(Bi2O7)2,-2.429904200833333
7053,U3Ge,-0.16257409375000087
7054,Tm(FeB)2,-0.45310076499999924
7055,NaHoGeO4,-2.8830820645073882
7056,FeF3,-2.638641755625
7057,Ba3GeI2,-1.344989939583333
7058,TmLuCo2,-0.2519161666666667
7059,Be3Ir,-0.4614423187500005
7060,Y7FeI12,-1.4238042688333337
7061,K3Ti2P5S18,-1.0213684515565475
7062,Ti4Mn(PO4)6,-2.9922730714646963
7063,Rb3Mo2Cl9,-1.7780632758928567
7064,Nd5Te2Cl3O10,-3.0368914019999993
7065,Cs3InF6,-2.9639856068793105
7066,CsY(MoO4)2,-2.5643410228831427
7067,HfMnAl,-0.3573747684770107
7068,NaS,-1.0783823110883621
7069,Ba(InTe2)2,-1.0198317207142853
7070,Dy11Cd45,-0.23000364928571443
7071,Er2Mn3Si5,-0.5934343073793109
7072,KNaNdNbO5,-3.005935674394637
7073,TeH18(Br3O4)2,-1.1376913134848485
7074,VFe2Si,-0.4625551925
7075,Eu(CuO2)2,-1.8058522328571425
7076,AcYbAg2,-0.35160635895833314
7077,CeIn2Pd3,-0.6742212112499999
7078,TiPd2,-0.6315391311111102
7079,Ca2CuTe4(ClO5)2,-1.9210238378947366
7080,CsFe(MoO4)2,-2.025817859827587
7081,Cs2IrF6,-2.4891484367624517
7082,MgSc,-0.04004057249999926
7083,Lu6CuTe2,-0.7050089924999996
7084,SrLaVO4,-3.232872104166667
7085,NdSiNi4,-0.5477037016666664
7086,HgPd3,-0.13711425374999964
7087,Pr2(Al3Ir)3,-0.8389711435714295
7088,Ba3Tb2(PS4)4,-1.496245113033334
7089,LuI3,-1.5930283587500003
7090,Ti5Ga3,-0.42565715802083304
7091,Pr3AsS5Cl2,-2.0378786814204544
7092,VPCl9,-1.358424941212121
7093,La(SiRu)2,-0.864680186999999
7094,MnSiIr,-0.5436901051436784
7095,Ce(MnGe)2,-0.45126863817241514
7096,SrPd2,-0.6357145188888887
7097,K2Au3,-0.3383699691999997
7098,CsGdTe4,-1.2402164696551736
7099,HgNO3,-0.7491642440000007
7100,Nb2ReRu,-0.2223886799999999
7101,U3Si,-0.22605725999999926
7102,MnGeRu2,-0.26885357823275946
7103,NbTlWO6,-2.3767935625925936
7104,Sr3Ti2O7,-3.493003658472222
7105,K2CuBiCl6,-1.6057299275999999
7106,EuSiNi2Ge,-0.6219961180000005
7107,Pu4Sb3,-0.7840918128571417
7108,BPb7Br3O7,-1.6804854571759256
7109,KCr2PbF9,-3.008583681384616
7110,MgTaRu2,-0.3587628200000008
7111,CsCrAs2O7,-1.9671614045846388
7112,ZrCoGe,-0.705630211666667
7113,Ce(YS2)3,-2.3702552888750006
7114,MgRh2Pb,-0.32335853250000035
7115,Na2ZrSi2O7,-3.150040024425287
7116,NiI2,-0.37948815333333324
7117,UNi5,-0.26326946999999973
7118,Ba3(LiBi)4,-0.7702387830303029
7119,ErB4Os,-0.5943682490277785
7120,AlZnIr2,-0.6060536674999994
7121,KSnAsS5,-0.8060996770156255
7122,Sm(BC)2,-0.42873758566666564
7123,ErSeI,-1.9691664591145834
7124,KZr2(AsO4)3,-2.5260598323888885
7125,CsPH4(NO)2,-1.2669462438764363
7126,ThGa3,-0.5267280593749994
7127,Mg10TiSn(BO5)4,-3.0240468866666674
7128,Cs2U(PtSe2)3,-1.1022889183270472
7129,La6TlCo13,-0.11346835991666708
7130,Li6MnS4,-1.3794300214028217
7131,GdGa3,-0.5485079331249993
7132,Ho(GeRh)2,-0.8742085940000003
7133,Sr5As3,-1.0576540297916668
7134,Sr2ErTaO6,-3.6216015588333335
7135,Dy5C2Br9,-1.8969199362499993
7136,Nd(Al5Ru)2,-0.518703981923077
7137,Zr(Al2Fe)4,-0.430270339230769
7138,TlBr3,-0.7934181983333335
7139,CsEuF3,-3.5826175780862073
7140,Th(CuGe)2,-0.4831071000000001
7141,BaAs2Xe5F22,-1.8367409371666668
7142,RbZn4P3,-0.3002227634375001
7143,DyAg2,-0.32171068777777795
7144,Ni5Te4(BrO6)2,-1.3343787173913046
7145,Ba2Ti(SiO4)2,-3.44362768025641
7146,EuMg2Cu9,-0.13549168166666684
7147,ThS,-2.0957000465625004
7148,SmAgGe,-0.6491881700000006
7149,BaTa2O6,-3.441533330648148
7150,Hf4Co4Ge7,-0.557783834
7151,CsCu2ICl2,-1.1419208113218389
7152,Ta3Os2,-0.3289487369999999
7153,TiGeRh,-0.7800290711111104
7154,DyZn2,-0.39101084333333347
7155,LiSO3F,-2.2246013498263904
7156,NdS,-2.275678511562501
7157,ZrBRh3,-0.7379468218333329
7158,Sm2Se5O13,-1.979478706335938
7159,LaCrN3,-1.051438014499999
7160,Sr2YNbO6,-3.471412746
7161,OsCl4,-0.8753744609999998
7162,Li5NiO4,-1.8486430161666667
7163,GaSe,-0.8271763449218748
7164,Ca(GePd)2,-0.7147530320000002
7165,Ce2In8Pd,-0.4170187963636364
7166,Li2TlCd,-0.24957127249999989
7167,Sm2ZnTe2(SO7)2,-2.368246759821429
7168,NaEuS2,-1.7872237169504315
7169,TlPF6,-2.815866648958333
7170,NaErGeO4,-2.8892810559359607
7171,Li4Ga3Si3IO12,-2.683227465471014
7172,Sm(GaFe)6,-0.30289811692307683
7173,Eu4Zn51,-0.1793304172727274
7174,LiVSnO4,-2.3310402347619052
7175,Nd(P3Os)4,-0.5905948276470584
7176,PrAs2Au,-0.7643458731249995
7177,Y6Al43Cr4,-0.2716616374528307
7178,Dy(CuGe)2,-0.49903549200000014
7179,PmBi3,-0.42224852437500004
7180,Rb2Bi(ClO4)5,-0.805905350714286
7181,CeIn7Pt2,-0.4557326275000001
7182,GdInAu,-0.7413062411111105
7183,LiZrS2,-1.7440020323958336
7184,LuIr2,-0.8440265550000005
7185,MnV3,-0.14656493948275795
7186,CePuFe4,-0.0865179808333328
7187,Ba(DySe2)2,-2.2432635756250003
7188,RuCl3,-1.0051291274999996
7189,La(CoGe)2,-0.5911256590000008
7190,Na2UF8,-3.446789894827587
7191,LiNdTl2,-0.33970562750000033
7192,Pu3Pb,-0.12208075750000091
7193,MnPt,-0.3463144039655175
7194,NdCrO3,-3.1418435925000012
7195,ErGa2,-0.6098277649999998
7196,As2S2O9,-1.6813720114423085
7197,Hf14Cu51,-0.15576182230769292
7198,GdAl7Au3,-0.5145514286363638
7199,ErNbRu2,-0.3544025099999999
7200,Fe2CoSi,-0.3564300487499992
7201,PaInCu2,-0.0754049650000006
7202,Rb(CoAs)2,-0.39037519350000094
7203,Ba6Ge5N2,-0.6452755657692311
7204,Tl5SbO5,-1.257848158106061
7205,Li3DySb2,-0.8790974066666669
7206,Ba2TbBiO6,-2.8269350489999994
7207,Sr9LuV7O28,-3.076795388555557