,formula_pretty,formation_energy_per_atom
4220,Ca4HfN4,-1.3247343322222223
4221,LiEu2Ir,-0.25323714583333334
4222,SmBiPd,-0.9501988283333335
4223,Sm3Ga2,-0.5013863935000004
4224,LuGaAu,-0.7643268774999997
4225,Rb6U5V2O23,-3.1118384799305567
4226,K2AsH13O10,-1.4714493944615386
4227,HoCu4Pd,-0.3672732599999999
4228,Sm2(ReB2)3,-0.4874919113636364
4229,U(Ni2P)2,-0.6785583859523803
4230,NbNi6Mo,-0.19613729875000008
4231,YbHoPt2,-1.1891500624999995
4232,NdEuB12,-0.4840087382142845
4233,Ce(CrB3)2,-0.6174203988888883
4234,RbGaH2,-0.2997020087500002
4235,Sr5Sb3,-1.0688759435416668
4236,GdZn,-0.36504265500000077
4237,Rb2PuCl5,-2.38675141375
4238,RbBa2I5,-1.9777077584375
4239,Nb4VS8,-1.4494738134615397
4240,Ba3ThSe7,-1.9382518242187503
4241,K2PAuS4,-1.0163734777291666
4242,La3S3N,-2.3147963206250006
4243,Cu2AsO5,-1.2267331896875007
4244,KEu(CO3)2,-2.3765027413
4245,Dy5C2I9,-1.4329497821875
4246,Na6Si2Se7,-1.1447689937144399
4247,Na4BeAlSi4ClO12,-3.0066452644003006
4248,Tb7RhBr12,-1.9433009655000006
4249,Li2SiAu,-0.43883900416666677
4250,RbBiO2,-1.6940155843749993
4251,Gd2C3,-0.23069282499999844
4252,Tm2IrRh,-0.9770741758333328
4253,LiLu2Ir,-0.6728550858333335
4254,NpSeO,-2.567476800364583
4255,NbCu3(SeS)2,-0.8025279051171879
4256,Co(NO3)2,-0.9242905938888887
4257,Mn2Tl2(SO4)3,-1.926517845889671
4258,TaNi3,-0.3607765349999994
4259,ZnMoO4,-1.9200657502777778
4260,AsRhS,-0.778834894375
4261,V2H3O5,-1.9627195339999985
4262,Cs2SrP2O7,-2.9052227315996166
4263,Cs2H4Pd,-0.3730356408374388
4264,Y(MnSi)2,-0.6052444465057476
4265,CsFeI4,-0.9414655667385059
4266,Eu(DySe2)2,-2.1967779277678576
4267,Cs4Re6Se13,-0.9327394881388209
4268,Rb3Bi2I9,-1.1778000705357148
4269,TbRhO3,-2.5764696895
4270,LaIn2Ir,-0.5791634462499999
4271,Cs2Hg(BSe)9,-0.6499354392598004
4272,TiFeSi2,-0.6451737456250003
4273,Sr2MnBiPbO6,-2.290797833069489
4274,Ca5As3,-1.1083260424999999
4275,Pm2IrRu,-0.3830970874999995
4276,Mg(GaO2)2,-2.5373796199999994
4277,Ba2NdUO6,-3.5589372040000002
4278,Ta2MnO6,-3.0992104047701168
4279,Cd2SiO4,-2.2258739942857138
4280,CsCrH24(SeO10)2,-1.3581018804191363
4281,Eu(SbPd)2,-0.8610379749999992
4282,Eu(AlS2)2,-1.713223180357142
4283,CeZnRh,-0.6805701329166673
4284,YbSiPd,-0.783081255833333
4285,Al4CO4,-2.595186500000001
4286,Tm3Ga2,-0.5439443604999994
4287,Li(Co3P2)2,-0.6469888396969697
4288,CsSbH4O5,-1.6278292920846404
4289,Ho3AlN,-1.0037206490000004
4290,Sr(H2N)2,-0.6758541798809523
4291,KBa2IO6,-2.1375728437999997
4292,RbGeIO6,-1.5202793797222225
4293,CsNdCdTe3,-1.3138352838218392
4294,Ba3MoN4,-1.0227509981250007
4295,Nd2(SO4)3,-2.620501713492647
4296,Pb13(Br3O5)2,-1.4709641636206905
4297,Zr(TeCl6)2,-1.4919463963333335
4298,Pd(AuF4)2,-1.3856691668181818
4299,LaMgAg,-0.2758729938888887
4300,La2ScSi2,-0.6602602599999997
4301,V2CdP2O9,-2.555012819761905
4302,Li2GeTeO6,-2.013021206166667
4303,LiBeSb,-0.3259631261111113
4304,NiPbO3,-1.289322197
4305,Ti4C3N,-1.1043820347916675
4306,LuInCu2,-0.3155398149999993
4307,Zr3Hg,-0.18071051500000035
4308,La(CdAs)3,-0.5343260414285719
4309,Zn(BH4)2,-0.17265017939393926
4310,Nd(GeIr)2,-0.7801085959999995
4311,ThSiIr,-1.027342411666666
4312,LuCrB4,-0.7006441986111097
4313,Zr5Sb3As,-0.8933488355555552
4314,LiMnSbO4,-2.099758429109196
4315,Pr15Si10Ni7,-0.613075578437499
4316,Ba2PuInO6,-2.9853739490000004
4317,GdGa2Co,-0.5400496362500009
4318,La23Mg4Ir7,-0.4458549817647069
4319,BOs,-0.23685539708333359
4320,NbCl3O,-2.1296624100000003
4321,CrH10N2Cl5O,-1.029234777631579
4322,CaSn(BO3)2,-2.8374268643333336
4323,LuGa,-0.6086213862499994
4324,Rb7Th2(P2Se7)3,-1.0938487022699652
4325,NbSiNi,-0.69779435
4326,Eu3Ge5,-0.6021394612499993
4327,Tb(AlCl4)3,-2.1765682483333335
4328,Ca2TlZn,-0.34610894833333306
4329,La3SiBr3,-1.7345238082142858
4330,KCdSb,-0.4602990643333336
4331,NaTl2Bi,-0.17020502080459732
4332,Ba2NdSbO6,-3.013436564
4333,ErCuP2,-0.872619805416667
4334,Ho(SiPt)2,-1.0761121959999997
4335,TmCo2,-0.26391248055555633
4336,Ho11Te16ClO48,-2.4903649094736835
4337,GdScGe,-0.748113085
4338,CsCr(MoO4)2,-2.1644960927442534
4339,ErPaRu2,-0.44163973250000055
4340,Ba3WN4,-1.0853993939062505
4341,Tm2Al3Si2,-0.5070405561904755
4342,BaCoN,-0.5299071076666668
4343,ReSe2,-0.7141983440625003
4344,Mn2H2SO6,-1.8512324308170065
4345,ErInAu2,-0.69949006
4346,MgCd2,-0.09040035333333336
4347,DyInRh2,-0.7522442524999997
4348,LuTc2,-0.27771253833333276
4349,Pr3(Si3Pd10)2,-0.7943441725862068
4350,Lu2ReC2,-0.4745217459999992
4351,CeCoSi3,-0.6636443559999996
4352,PrIO,-3.0251421483333325
4353,ZrMnGe,-0.5708625418103447
4354,PtS,-0.6587477565624997
4355,CsTbZnTe3,-1.3082366804885055
4356,Fe(PO3)3,-2.4793523848717953
4357,LiYS2,-2.1009095415625003
4358,Hf6Zn16Cu7,-0.2008732000000003
4359,Ba4Os6ClO18,-2.0908929803448277
4360,Na3BrO,-1.6273931404310347
4361,Cl2,0.0
4362,KHg6,-0.1529535232857143
4363,Ca3Al7Ag2,-0.31012263444444405
4364,CdTe,-0.6692981199999997
4365,P6Pb3Xe11F58,-2.0210504289102564
4366,P3Pd7,-0.47360685049999984
4367,NaCrN2,-0.5746908103879314
4368,Ba3SmB24,-0.42429849767857064
4369,Ca2NdTaO6,-3.564854214500001
4370,LaPr(MnSi)4,-0.5232397091724138
4371,Yb6Ni20P13,-0.8501783405982906
4372,CsLi(B3O5)2,-2.844626364931355
4373,LiY2Os,-0.21345997791666704
4374,Ta2V3Ge,-0.24740005666666676
4375,Pd(Se3Br)2,-0.5727001998958328
4376,Cs3Sm(PS4)2,-1.3647627696756974
4377,Mn2NbAl,-0.25654126146551803
4378,Yb2ZnRh,-0.4739114299999998
4379,KSnPO5,-2.5060533025104172
4380,ZrTa(SiRu)2,-0.7861913677777765
4381,Mg3(Al9V)2,-0.13744742521739137
4382,GdCo5P3,-0.8276803619444435
4383,Sm4Mg3Co2,-0.12751459111111135
4384,AsCl3O,-1.158275777
4385,NbAlCo2,-0.4288084450000005
4386,TmIr,-0.957963518333333
4387,Co(NO3)4,-0.7617880007352946
4388,Mg3Au13,-0.30985549812500013
4389,FeIr3,-0.07309013999999969
4390,SrAl9Co2,-0.40280608805555573
4391,BaBClF4,-3.4318023213095246
4392,ErNi7B3,-0.4301461420454535
4393,Ca3BCBr2N,-1.3826216008333327
4394,Tm2Ga3Cu,-0.5864414943055548
4395,Sr(In4Ir)2,-0.25708244560606114
4396,Ca2TlHg,-0.5021360445833332
4397,PH3NF5,-2.044621401083333
4398,CaPdF6,-2.6175304631249996
4399,CaMgAsO4F,-2.8907376321875
4400,SbH7F12,-2.04346791275
4401,ReO3F,-2.1871849305000013
4402,Ti2GeC,-0.8094008291666661
4403,BaHCl,-1.8352917999999996
4404,Sr3(AlGe2)2,-0.5011749455555558
4405,U2AsN2,-1.4526853189999998
4406,Gd3CuSnS7,-1.7261127818229174
4407,Cs2Li2B2P4O15,-2.7577421927678163
4408,Tb2(GePt3)3,-0.7753492132142858
4409,Ca4Al6CrO16,-3.2279275188888894
4410,Dy3Os,-0.2567227893749999
4411,Zr2Te4Br2O11,-2.164311295000001
4412,K2SbCl5,-1.8240331629375002
4413,TlSnF7,-2.477105996481482
4414,Li2Sb,-0.6301295811111112
4415,CaZnAg,-0.3175798738888889
4416,Na3Sm7Cl24,-2.6067392666075047
4417,K(SbSe2)2,-0.7611136510535711
4418,EuMgGa3,-0.42454505549999977
4419,Ca2TaVO6,-3.255529698000001
4420,Cs2ReCl6,-1.7440234267624517
4421,Cu2As9P3S9I2,-0.39237140402500076
4422,Rb2Mo(IO3)6,-1.1574993938888891
4423,Rb2Mn3O4,-1.754988467643679
4424,Ba3InIrRuO9,-2.2117556336666677
4425,Ca4As3,-1.162088167142857
4426,CsSmZnTe3,-1.3133645321551726
4427,Y4S3N2,-2.180459537337963
4428,PrMgSi2,-0.48984220874999984
4429,SrTiFe(PO4)3,-2.8994772024999995
4430,Hf(BH4)4,-0.3160106274603179
4431,TaH6C2SeCl5,-0.8775116434895835
4432,Gd2Mn(GeO3)4,-2.634544959364792
4433,Er4Ga21Ni10,-0.5059936556428576
4434,BaTi(AsO4)2,-2.528850488611111
4435,PmRh2Pb,-0.47276304437500016
4436,DyMgHg2,-0.4575395900000001
4437,HoRe2SiC,-0.46010164799999986
4438,NaInH12(SeO7)2,-1.3645803388746407
4439,Ho3Sc2Al3O12,-3.8267169648749997
4440,Zr4Ni3As8,-0.7592846099999994
4441,Sc(CoGe)6,-0.3586215480769233
4442,Al3BC,-0.09838833783333314
4443,PrSi2Ni,-0.7741917449999995
4444,YbTl2Cd,-0.2783290241666665
4445,KPt2S3,-0.9257593603958334
4446,CdSe,-0.8556073811718745
4447,USb2Au,-0.3753038549999994
4448,YMn2SiC,-0.496533991505747
4449,NdScGe,-0.7135552233333335
4450,Sm(AlZn)2,-0.43168044099999997
4451,Ba6Sn7S20,-1.348101420227273
4452,LiPr2RuO6,-2.7919924743333326
4453,Rb2Au3,-0.2986394249999996
4454,Sr(CdGe)2,-0.31138002333333326
4455,InPd2Au,-0.40128676500000005
4456,EuCd2,-0.3284151099999999
4457,MgTiO3,-3.368974638666667
4458,Y3Ge13Os4,-0.3415008837500004
4459,Mn7(P2O7)4,-2.5508639138879974
4460,Ba4AgAuO6,-2.1976280747222225
4461,Sm6Al3Fe11,-0.13974729350000104
4462,Y12(MnC3)5,-0.3500320181142236
4463,Rb18Mg6B29O58F,-2.778614424940476
4464,SmMoBrO4,-2.5893608842857145
4465,Al2Pb3F12,-3.2478506101470583
4466,Li2Cr3SbO8,-2.32606837297619
4467,Rb2NaAsF6,-2.8027158041551723
4468,Ca(PIr)2,-0.8965174793333337
4469,TaCu3Te4,-0.4756568775000005
4470,EuAl3Cu2,-0.3701423941666662
4471,Er6MnBi2,-0.4055495264367816
4472,BaAu5,-0.44300350000000027
4473,Ti2Zn,-0.1555636288888896
4474,YbIn3,-0.34611858500000015
4475,CeSb2,-0.903517151666667
4476,KOsNOF5,-2.107065413388889
4477,Tm12(OsC3)5,-0.36983486578124936
4478,VPt8,-0.26036582111111134
4479,CoMoP,-0.615223426944444
4480,Cs5GeAs3,-0.36113333440613044
4481,InSbS3,-0.7000032303750003
4482,BaSi(S2O7)3,-2.024619170086207
4483,Mn2VSi,-0.49591166646551876
4484,Ca2MgTl,-0.2886446783333332
4485,Cs2KU2(Si2O7)2,-3.2396814438635677
4486,Nd2SeO2,-3.3765530564687487
4487,LiAgF4,-1.987667593333333
4488,EuSe2,-1.6616675815624997
4489,TeSO5,-1.632383550446429
4490,NbP2,-0.6756786672222219
4491,Tb2Al3Si2,-0.5305950999999988
4492,MgSn(BO3)2,-2.715067036333334
4493,Y(CoB)2,-0.561189748999999
4494,NbReSi,-0.4888082016666668
4495,Fe(IO3)3,-0.9786766469230775
4496,AlCr4CuS8,-1.0487109996428572
4497,Ba6Pr2Fe4O15,-2.676113830555556
4498,AcHgTe2,-1.0411021543750003
4499,Ru(OF3)2,-1.557114331388889
4500,CsDy2Cu3Se5,-1.3250541345136169
4501,K2Ge2Pb2O7,-1.9786286639230763
4502,LuAsSe,-1.513333644114584
4503,Dy2(Ni2B)5,-0.46611922394607863
4504,ZrSiPd,-0.9829002916666655
4505,Ho(CoB)4,-0.5116943574074071
4506,Ba19Na29Li13,-0.014327324071038235
4507,CaH3NO5,-1.6255132667500007
4508,Sr3TaGa3(SiO7)2,-3.099769399673913
4509,U(BH4)4,-0.2710159123412701
4510,TbPd,-0.9162509449999998
4511,ErNi5Ge3,-0.5308241813888885
4512,Rb2SiS3,-1.3765976982291666
4513,Be2RhAu,-0.41446301750000014
4514,TiReSi,-0.7135443027777768
4515,TiCoSi,-0.7894698094444443
4516,Pr2Ge5Ru3,-0.636323651
4517,YbErRh2,-0.8067543299999995
4518,YMg2Cu9,-0.17402604763888915
4519,UHg4(AsCl3)2,-1.1678593643269224
4520,ErVB4,-0.730598112777777
4521,LuAgO2,-2.711662609166666
4522,CrPdO2,-1.6854890449999997
4523,YB4Os,-0.5695939130555546
4524,Lu(ClO4)3,-0.9762775381250002
4525,LiCrO2,-2.408621853333333
4526,PrSi2Mo2C,-0.4215596108333332
4527,EuClF,-3.4717062341666676
4528,NbBiO4,-2.518023442083333
4529,Sr5Nb5O17,-3.2812611771604936
4530,Mg2NiB2Ir5,-0.3820845223333322
4531,PmYIr2,-0.7005225835416669
4532,MgZnCo,-0.1131978233333335
4533,Na3ScF6,-3.524176864965517
4534,RbPuP2S7,-1.1221304344128784
4535,LuZr3F15,-4.121062870789475
4536,La(AsRh)2,-0.9787495140000004
4537,Ba(SbSe2)2,-1.0657440163392857
4538,Sr(AlCl4)2,-2.272088902765151
4539,Bi2Ir2O7,-1.4689362899999994
4540,Sc4TaFe19P12,-0.7720956961111116
4541,KAlCl4,-2.1683274413333335
4542,NaAlAs2O7,-2.1982606099137936
4543,ScZnPt,-0.9414351283333335
4544,Ag2H2IOF,-1.0506272929761902
4545,Cs2NdAgBr6,-1.9007926487528735
4546,SiIr3,-0.39440218500000057
4547,Y21B7(C7I9)2,-1.0225989209027782
4548,TaV2,-0.10427826666666817
4549,LiUI6,-1.162662237916667
4550,YbLuRh2,-0.84558059
4551,TiAs,-0.9201251841666664
4552,GdB4Mo,-0.6024453386111107
4553,Dy4MgRu,-0.24552962416666682
4554,LiN3,-0.4021599720833322
4555,BaTeO4,-2.2501293645833322
4556,Mg149Ti,-0.020378963688888804
4557,NaAu(SO4)2,-1.6488973760668095
4558,YbCuGe,-0.5426375616666667
4559,Zr9CoMo4,-0.12690858642857197
4560,SrBiO3,-2.261205562333333
4561,TmCdRh2,-0.6148893791666659
4562,NbTl3Se4,-0.8240733849218747
4563,CdHgAsBr,-0.5041553793750002
4564,K2MoS4,-1.2215740083571427
4565,Yb3SiO,-1.7549247189999995
4566,RhBr3,-0.8458065131249999
4567,HfSiRu,-0.9532806077777786
4568,Ta5Ge3,-0.36269523937500026
4569,P3Se4I,-0.3406484549218751
4570,Na3MoCl6,-1.7956504094655172
4571,Cs2NaSmCl6,-2.4890063537413787
4572,Ba(ErS2)2,-2.425354833928572
4573,Pr3Lu2(GaO4)3,-3.3662354508750005
4574,Ca11Sn3C8,-0.3488092102272724
4575,YAgTe2,-1.1391337708333342
4576,In2Bi4Pb4S13,-0.7412968897010868
4577,Tm2Te3,-1.6233118301666665
4578,Ho2Hf2(MoO4)7,-2.586803946923077
4579,NaYbCu2F8,-2.6967110680459765
4580,Ca4Al6TeO12,-3.3449748043478253
4581,Na5Y(CO3)4,-2.303009237019331
4582,FeTeO3F,-1.8449300958333332
4583,YbNdZn2,-0.33807242000000004
4584,YAlCu,-0.45711525777777795
4585,CaSi7Ir3,-0.5982914250000007
4586,Nd3(CuGe)4,-0.6020717100000003
4587,Ce3Co29(Si2B5)2,-0.4305341132971013
4588,RbSF5,-2.3236928575892857
4589,Pr2Re2Si2C,-0.5229401999999997
4590,La21Fe8Sb7C12,-0.5522190180208332
4591,Ce2Zn17,-0.2416916442105265
4592,Nb2GaC,-0.5179270543750008
4593,TmNi4B,-0.5127099684722225
4594,Dy7In(CoGe3)4,-0.6791847887499998
4595,Eu2FeH6,-0.6239523655555553
4596,Sr3PbO,-1.5877820950000003
4597,Sc4Co7Ge6,-0.6123647591176469
4598,Ca3Ga2(Ge2O7)2,-2.5693881367391294
4599,Th3P4,-1.4312107147619042
4600,Cu(IrS2)2,-0.6616743210714284
4601,KAu(NO3)4,-0.929078260722222
4602,KInTe2,-0.9085941357499996
4603,BaMg2Si2O7,-3.299730903958333
4604,Tb3DyAl8,-0.5296273316666665
4605,Ta2MoIr,-0.38998682249999916
4606,Ba8Bi4H2O,-1.1494669770000001
4607,ErThRu2,-0.46307571500000044
4608,NbGaO4,-2.7242927654166658
4609,NpGe3,-0.2075020209374996
4610,Mn3TeP2Pb3O14,-2.156980549150424
4611,K11Mn4O16,-1.7866413337007787
4612,SmThN2,-1.735518506250001
4613,Ba2Sb3,-0.9623580352500006
4614,Dy(BC)2,-0.4468422876666665
4615,DyGePd,-0.9925177816666668
4616,LaClO,-3.604574928333335
4617,K4SnO3,-1.5919975407187499
4618,La3SiPd5,-0.9041004933333328
4619,Lu2Mn2O7,-2.938248651896551
4620,Tl9SbSe6,-0.5313310596289065
4621,TaRh3,-0.5941913450000005
4622,Al2Cu,-0.17806622999999946
4623,CsTl3O5,-1.202406873381226
4624,Er3Cu3Sb4,-0.7690311059999999
4625,KBrO3,-1.0488314971000001
4626,SbPCl8O,-1.376730967348485
4627,Cd7(P2Cl3)2,-0.859101245343137
4628,CdSiO3,-2.5430334035000004
4629,Nb3Se10Cl3,-1.126560505527344
4630,TbVO4,-3.209972234166667
4631,Co5Se4(BrO6)2,-1.2656781841032616
4632,CsCNO,-1.242244299482759
4633,FeCl2,-1.1257440966666667
4634,Al7(TlS4)3,-1.2642106189772726
4635,YMg3,-0.09079441416666656
4636,HfAlNi,-0.6470612999999995
4637,GdAs,-1.5326471024999986
4638,K11(In2Bi3)3,-0.33078192492307706
4639,TaRe,-0.19988631750000074
4640,Zr5Sb3,-0.7474119896875004
4641,PuF4,-3.8011801513333334
4642,HgPd2Au,-0.1610771462499998
4643,Tm(Al5Re)2,-0.3469266458974359
4644,KTb(WO4)2,-2.6796297348333327
4645,Zr5Ge4,-0.8446794269444445
4646,DyCdHg2,-0.36697300749999995
4647,Sm(CuGe)2,-0.5303885949999995
4648,U3Cu2Se7,-1.1864679605338537
4649,Ba2YC2(O2F)3,-3.1993832367261907
4650,Hf3P,-0.7922675789583344
4651,SmAlZn,-0.4484158166666674
4652,Ce2CdPt2,-0.9401975040000004
4653,ThSbRh,-1.0544800700000003
4654,Tl3B3S10,-0.6749559455468752
4655,KLiWO4,-2.3179046648333332
4656,FeSbS,-0.5935768743749996
4657,Be2CoPt,-0.5918615562500005
4658,HfTe5,-0.817208881666667
4659,Sm(FeSi)2,-0.6189532109999988
4660,U(PbO2)3,-2.3946090758749996
4661,K2RbDyV2O8,-2.7351421073928575
4662,BaVCdF7,-3.3034343015
4663,LiP5Pb2O15,-2.538906083695652
4664,Nd5Zr3(Ni4As3)4,-0.8278611075000002
4665,RbEr2Cu3Se5,-1.3235291658380681
4666,EuGeO3,-2.6000674349999997
4667,Ba(FeAs)2,-0.5638677110000003
4668,LiGaAu2,-0.42975578020833316
4669,PmHoTl2,-0.3548327960416664
4670,Zr5Te4,-1.044782446666666
4671,NpB3O8,-2.8004976730208333
4672,RbBiO3,-1.4476285665
4673,BaZnO2,-2.365422885833334
4674,ErSbO4,-2.879032631666666
4675,Fe2NiO4,-1.5910449149999997
4676,Pr14Ag51,-0.24676413184615345
4677,CdInRh2,-0.2964038425000002
4678,Sm3(GaNi3)2,-0.4932194986363628
4679,MoWSe4,-1.0541891865624997
4680,NaLi2Mo2P3O14,-2.5040647942371987
4681,Hf2CoIr,-0.6811200462499993
4682,Cs4Rb2Fe2O5,-1.421566059748011
4683,Sc3PbC,-0.6774342450000006
4684,Al2HgTe4,-0.6229170592857142
4685,YbWClO4,-2.4284428399999993
4686,Ce2NiRu3,-0.33443702416666693
4687,KCeS2,-2.0548654235625
4688,Cs2ReF6,-2.7872571495402294
4689,TiAlFe2,-0.45417288083333407
4690,K2VPCO7,-2.436651926819444
4691,AlCr2C,-0.1732796324999999
4692,Dy3Ga2,-0.53733511875
4693,Mg2CrN3,-0.8666889083333338
4694,ErNiGe2,-0.6914187406250001
4695,Lu(MnSi)2,-0.5981828471724129
4696,Sm2IrPd,-0.7814787999999995
4697,SmEuSe2,-2.1593595911718753
4698,KDyS2,-2.1322807323125
4699,AlH12(NO5)3,-1.2983507391935492
4700,LiAl2H6BrO6,-2.0522984738020837
4701,TmGa2,-0.600452565555555
4702,Ba3Mn2O8,-2.4274510477586206
4703,KNO3,-1.4266893160999998
4704,K3SnTe3,-1.0114688470000002
4705,K2HgCl4,-1.7329950308571431
4706,Cs2PaF7,-3.7961197208362067
4707,Ge,0.0
4708,Si2Pd9,-0.45199598954545456
4709,CaZn11,-0.16496461416666688
4710,Ba2GaBiS5,-1.5733184097916666
4711,CaAl9Ni,-0.24065220000000018
4712,Tl3AsO4,-1.4309498437500001
4713,Lu2MgGe2,-0.7195059709999996
4714,Na3H6Ir,-0.4772390179655176
4715,NdMg(BO2)5,-3.0985967976960787
4716,Yb2Sn5Pt3,-0.7773692267500003
4717,CsPr(WO4)2,-2.630239304410921
4718,SrTi4(PO4)6,-3.1046913457142864
4719,Ho6MnTe2,-0.6769698486590036
4720,Cs4Au6S5,-0.8454521124899425
4721,Nd(PO3)3,-2.987920098076924
4722,B9H11,-0.18900603437499938
4723,BaZrO3,-3.6391672450000003
4724,Re2S(ClO2)4,-1.6704547767083322
4725,K6Co2O7,-1.5400375402000008
4726,U2Ti,-0.07786892111111143
4727,Ca4Al6SO16,-3.2958446627083333
4728,PaCdPt2,-0.7365868825000002
4729,Ti3O5,-3.3799429918750006
4730,Sr2CdSn,-0.5381105470833334
4731,Er2(NiB2)3,-0.5865435013636358
4732,Ce3Pb,-0.2789152937499999
4733,NaLiCO3,-2.1699292837771385
4734,CsSm(PO3)4,-2.9249072944220953
4735,Sm12Sn(GeS7)4,-1.8112918431666674
4736,Ti2BRh6,-0.6741482217592597
4737,Lu2ZnRu,-0.4411661462499996
4738,Na2Mg3(MoO4)4,-2.353816655457472
4739,SbBrF8,-2.0848550230000003
4740,CdH3NO5,-1.180692660375
4741,NaTbCl4,-2.5291400210919535
4742,Ba3Bi(ClO)3,-2.7221236712500003
4743,Sm3IrO7,-3.044802431818182
4744,LiHf2Re,-0.20725215458333324
4745,Ba3CaBi2O9,-2.4185805936666673
4746,ZrCoF6,-3.4092998762499995
4747,Th2Co17,-0.11620551815789482
4748,Cs2K2Cd3O5,-1.3994968684885059
4749,Sr2Si,-0.3397854211111113
4750,FeTeAs,-0.396186169166666
4751,La2Ga10Ni,-0.4923889649999997
4752,Na2HgS2,-0.9615985686206898
4753,RbAl(MoO4)2,-2.3733081797916675
4754,SmSe2,-1.9094324598958334
4755,CsH3O2,-1.4452424804885056
4756,Zr2CoCuSn2,-0.46186052416666595
4757,NaAlI4,-1.154857679008621
4758,LuCo3B2,-0.5428598038888891
4759,ErBi2ClO4,-2.4755850312499996
4760,Nb3Zn3N,-0.5549504532142849
4761,K2Cd3S4,-1.060915779833333
4762,CsTa6PbCl18,-1.7648035485742706
4763,ThTi2O6,-3.7904196974074074
4764,ZrCoH3,-0.5002482350000002
4765,KUO3,-3.3393040456
4766,CsRb(MnCl3)2,-1.84087307125431
4767,Cd4P2Br3,-0.6782761515740741
4768,TmAlPd,-0.8968026097222221
4769,CoH12(BrO6)2,-1.016511133240741
4770,Sr6Ge5N2,-0.702696941153846
4771,Na5AlP2(O4F)2,-2.8515434509865902
4772,GdH18(IO3)3,-1.3466175950000001
4773,Nd6Ta4Al43,-0.30466767745283
4774,Sr2MnWO6,-2.7684668011264364
4775,TbCdPd2,-0.7259786449999996
4776,TmAl3Ni2,-0.6560366794444445
4777,LiGaBr4,-1.4556125918055554
4778,Rb,0.0
4779,LuRh,-1.0294162550000001
4780,Nd6Cd(GeS7)2,-1.8079281027717387
4781,Sr(NiAs)2,-0.6626934453333334
4782,Li3UO4,-2.9485476099999994
4783,U7(Pd3S4)8,-0.9572911419047623
4784,Mn(CrS2)2,-0.9852641064901471
4785,CsLa2Br7,-2.395306370543103
4786,Ba2Fe2CuF14,-2.8034159297368424
4787,KNb4AsO13,-2.780238542000002
4788,Ti3In,-0.12693709749999993
4789,U11Se20,-1.4718961605443546
4790,HfH8(SO6)2,-1.8264942922282614
4791,GdCu5,-0.17208428166666678
4792,NbCrSe5,-0.9210043895312491
4793,Ba4UCr2S9,-1.8620251088411468
4794,K2Si(S2O7)3,-1.977597816575001
4795,YCoSi,-0.6950505655555546
4796,Zn,0.0
4797,Yb(ClO4)3,-0.8230467821875003
4798,Sr(PRu)2,-0.9276010746666664
4799,Br2O3,-0.1987005934999999
4800,Ca2CrIrO6,-2.4017410164999986
4801,UHg3(TeCl3)2,-1.3782052108333334
4802,Sb2H18C3(IN)9,-0.5105322464634149
4803,LiBiF4,-2.930694927222222
4804,CsNb(BO3)2,-2.899153798626436
4805,Li2TiSiO5,-3.102776178888889
4806,RbUF5,-3.7588344517857144
4807,Na4Dy2(IrO4)3,-2.113196237438424
4808,Cs3Ge2Sb3O13,-2.069089457561577
4809,HgPt2Se3,-0.5862583586718753
4810,Cu(IO3)2,-0.8261393838888887
4811,SrCo(GeO3)2,-2.275830322166668
4812,Sr2TbBiO6,-2.8154527648333336
4813,Mo2RuSe4,-0.8467900106249989
4814,Tb(NiB)2,-0.5535193706666668
4815,Sm3(P3Pd10)2,-0.7135768381034475
4816,LaInNi5,-0.29256059464285755