,formula_pretty,formation_energy_per_atom
7805,Te2S(O2F3)2,-2.1390959169711534
7806,RbP(OF)2,-2.883279338888889
7807,Cs2LiMoF6,-2.9597452684195398
7808,La3(GePd)4,-0.9113218695454554
7809,Na2Se,-1.2192301018157323
7810,Tc2O7,-1.7992827913888878
7811,TaGaOs2,-0.3042877818750007
7812,K3AsSe3,-1.1215380526473215
7813,HoMgAu2,-0.7861636575
7814,KNaThF6,-3.8848505010613033
7815,ZrZnN2,-1.0446600050000008
7816,K5NaP3(HO4)3,-2.3929252996479886
7817,UCrC2,-0.20636716499999963
7818,SmSe,-2.0457833036718753
7819,KGaAs2O7,-1.9425580245909089
7820,Ag2HgI4,-0.5161846926190476
7821,CsV2SbO8,-2.251483958369254
7822,PrNiP,-1.1259779102777767
7823,CrNiF6,-2.536022914375
7824,SrAg5,-0.1859469349999999
7825,Lu5(Co2Si7)2,-0.6042320071739136
7826,Pr(ZnGa)2,-0.47365496399999996
7827,Nb2TlPS10,-0.9539939969940475
7828,Cd4As2Br3,-0.6859504322222223
7829,GdGa3Os,-0.4846774354999989
7830,Al2CuCl8,-1.6874217595454544
7831,YInPt2,-0.9520740079166661
7832,HoFeCo,-0.1829204166666661
7833,Cs2Nb3Cl7O5,-2.472652429756593
7834,Cs3U2Ge2O11,-2.8406053892385055
7835,NaTi2Al5O12,-3.3644215876609196
7836,Yb,0.0
7837,Ba7Ga4As9,-0.8941697130000001
7838,CeNiSb2,-0.8163881625000009
7839,ScVO4,-3.0418699458333336
7840,Pr12InPt7,-0.8632880307499995
7841,La3Cu4(As2O)2,-1.4792221703846151
7842,TbNd(NiGe2)2,-0.7280650612500006
7843,TiBi2O5,-2.3716559904166665
7844,DyB4Os,-0.5825392394444447
7845,Sm2GaCo2,-0.32953270550000013
7846,Zr6CoI14,-1.159674132619048
7847,CeIn3,-0.4035666287499997
7848,Mg3Hg,-0.15616784499999992
7849,PbS3O10,-1.7553584419196429
7850,K2AgAs,-0.3999106769166665
7851,Na7Al2Sb5,-0.44810044577586233
7852,LiInF4,-2.958664966388888
7853,Sc4BCl6,-2.0943387108333322
7854,Sc2(SeO4)3,-1.9998712485018382
7855,Ca4PdO6,-2.675235593636364
7856,S(IO3)2,-1.141125569236111
7857,ScInPt2,-0.9114386112499995
7858,CaGe2,-0.47911610999999965
7859,NdZnRh,-0.6498596904166666
7860,SbAsRh,-0.5683939158333331
7861,Ba3LiRu2O9,-2.2988576112222234
7862,YIr2,-0.8149059522222224
7863,Cu2Sb,-0.04070932166666689
7864,SnTePt,-0.6521510300000001
7865,BaSrYBiO6,-2.8137631133333327
7866,Ti2GaN,-1.299451539791666
7867,La2Re3B7,-0.47125142076388826
7868,Ba2CePtO6,-2.8009515315
7869,Tb3(MnC3)2,-0.27745958962382455
7870,Li7Si3,-0.2492587656666667
7871,PrGeIr,-0.7970951150000012
7872,CaP4(HO6)2,-2.572854968070176
7873,Lu6Co30P19,-0.8483265771515148
7874,CeTe,-1.5737985025000008
7875,Na5Pr4Ge4O16F,-2.782338357175288
7876,PrSiRu2C,-0.5368354170000004
7877,TaFeB,-0.6204101030555572
7878,Ca(BC)2,-0.3319165896666661
7879,RbY2Cl7,-2.680618406333334
7880,Na2PSe3,-0.9392020676613383
7881,GdMgTl,-0.3410529811111118
7882,NaFe(SeO4)2,-1.4243423392699353
7883,Dy3Pt,-0.7076760712499999
7884,Sr3(GaIr)4,-0.5585168072727275
7885,P3IrO9,-2.2478192150000016
7886,Hg2TeBr3,-0.7343371366666668
7887,ScGa5Ni,-0.45049109464285714
7888,Zr6Be15Cu8,-0.2470272343103453
7889,K11Np2H9(S5O22)2,-2.1223682549572374
7890,Na2AsAu,-0.48947226577586234
7891,BaAl4S7,-1.5926081764062492
7892,Mg8BPt4,-0.6639324253205126
7893,CsReBr4,-1.2124776873635053
7894,TbGaCo,-0.4662764033333329
7895,ScZnPt2,-0.9211580087499991
7896,TbNiBi,-0.6753624099999994
7897,Co3W,-0.08435097125000013
7898,FeSb(P2O7)2,-2.4048582211666654
7899,HoPaRu2,-0.4214363524999989
7900,Pr2Co17,-0.03805781026315757
7901,TaNb(Cu3S4)2,-0.8590705084375001
7902,GdZnGa,-0.5649511158333335
7903,ScTl(MoO4)2,-2.348787614027779
7904,ThPb3,-0.23683482249999965
7905,AgRhF6,-1.7094944189583337
7906,GdBO3,-3.499030348166666
7907,NaZr2(AsO4)3,-2.5055315828639855
7908,Ce2Br3N,-2.1369813216666667
7909,Bi2PdPt,-0.30268980000000045
7910,Yb5(Ni2Sn5)2,-0.517100982368421
7911,Ca5P12Ir19,-0.7205183372222214
7912,ScNiSb,-0.963593911666667
7913,AlSCl7,-1.2887086236805554
7914,Er4C7,-0.3020890254545453
7915,Be3Fe,-0.20899045125000093
7916,KVOF3,-2.983252126750001
7917,Co21(ReB3)2,-0.19148391310344864
7918,K3Sb,-0.4511310660000003
7919,KMgMn2AlGe3(O5F)2,-2.578319128443103
7920,BaNaLi3(BO2)6,-2.8457921926761616
7921,K2Zn3Se4,-1.1084525044861107
7922,La2TeO6,-3.0036721624999996
7923,Er2IrRu,-0.6863218487500005
7924,KNaSe,-1.2539982681318242
7925,LuAg4,-0.23093100533333272
7926,Cs2Pd3S4,-0.9723297264846751
7927,KTh2(PO4)3,-3.363840623222223
7928,Th3Bi4,-0.6223085135714287
7929,Sr(CdSb)2,-0.5831727413333336
7930,Fe2MoP12,-0.371610056000001
7931,Nd2Sn3,-0.6998750350000001
7932,LaHoIn2,-0.4725804512499998
7933,SbAsO5,-1.7347456414285725
7934,Ba8Sb6S17,-1.5285778917137094
7935,K3As11,-0.2701126393928566
7936,CsMnInTe3,-0.7578361320186785
7937,TlCl,-1.323994321666667
7938,Ho2Ti2O7,-3.793876732196969
7939,YbSmAg2,-0.36922590958333323
7940,RbTlO,-1.170677798611111
7941,KMoP2O7,-2.6000665101969687
7942,LiGe,-0.2808007504166663
7943,Pm2PdPt,-0.9334720987500003
7944,Yb2AgBi,-0.6488264891666664
7945,Ce(Al4Fe)2,-0.4188672145454549
7946,Na5Al3F14,-3.516238905352665
7947,K5H(CN2)2,-0.5654200249999999
7948,LiCa2Tl,-0.28576464666666634
7949,Sm(SiAu)2,-0.5993759890000007
7950,GdCo4B,-0.27694844069444474
7951,CeNiSb,-0.8304621316666664
7952,SmSn3,-0.46110392750000084
7953,Zr(Ni2P)2,-0.805743463095238
7954,Tb2CdPd2,-0.7973156339999996
7955,La3(AgSn)4,-0.5912656828787884
7956,RbTb2Ag3Te5,-1.0755729834090912
7957,Gd2CoTe2(SO7)2,-2.2894385905357146
7958,Li3Ga2,-0.32615995499999995
7959,Hf3Nb2Ga3,-0.45801806593750083
7960,Ba8Ga7,-0.3711424033333335
7961,Ba2H6Pt,-0.6598229866666669
7962,V3Se4,-0.9972716984821426
7963,Er4OsBr4,-1.5251438138888895
7964,PrZn11,-0.22129272375000011
7965,SrPdF4,-2.8664100111111104
7966,ErCu4Pd,-0.37260697000000026
7967,Dy3Ga5,-0.6549397390624998
7968,Li2Co3(SeO3)4,-1.5032071348115073
7969,GdCd2,-0.32166695999999934
7970,LiBeB,-0.1226927041666664
7971,CrCuO2,-1.7848196500000002
7972,TmSnIr,-0.857595032777778
7973,La6YbSe10,-2.31553732726103
7974,Ta5(NiP)4,-0.7834944517948711
7975,K10Zn4Sn4S17,-1.1904958206607144
7976,GaCuPt2,-0.4756986018749991
7977,Ba2LaSbO6,-3.0319067654999996
7978,LiAs,-0.48630209229166654
7979,Sr2YSbO6,-3.1001151740000013
7980,P3RhO9,-2.279809432307693
7981,ErBO3,-3.5672486228333335
7982,Li21Si5,-0.21350910961538497
7983,EuGa3Ni2,-0.5116642962500002
7984,Er3Sn7,-0.5039730355000003
7985,YBiPd,-0.9448690388888892
7986,AlH3NCl3,-1.3345064954687498
7987,PrSiOs2C,-0.4563941850000006
7988,P2Pb3O8,-2.335314533974359
7989,U6Al43Cr4,-0.1535859697169809
7990,EuAlAu,-0.6658977791666665
7991,CdNi,-0.01248889666666623
7992,CrWO4,-2.2810011499999994
7993,CrAsO4,-1.9684994730555556
7994,Tl2PdSe2,-0.5587231252708328
7995,SrBPd4,-0.5355250338888885
7996,K2H5F7,-2.245636519714285
7997,Ca3Zn3(TeO6)2,-2.320574773125
7998,SmSb,-1.2669580525000006
7999,SbAsO3,-1.6997547515000009
8000,K4SnO4,-1.8330781641111114
8001,UReB4,-0.5391310402777781
8002,RbBePO4,-2.8820663833333335
8003,TiMnCo2,-0.2934188078160931
8004,KErBeF6,-3.903392353666667
8005,Sr(PPt3)2,-0.6576630728703705
8006,K2HgBr2(NO6)2,-0.9293585084736847
8007,CeTl(PO3)4,-2.781022514675927
8008,Mg2FeBO5,-2.6845508346296296
8009,YCu2Bi2(SeO2)2,-1.7373310192140154
8010,Ca3SnH2,-0.6892772141666672
8011,Ba5Re3BrO15,-2.773594440104167
8012,Cs2Hg3S4,-0.783859129262452
8013,Sr2Zr7O16,-3.7603666409333334
8014,Eu2Ni12P5,-0.6407156316666658
8015,MnSb,-0.12635417396551762
8016,B5H12NO12,-1.8452516630277775
8017,MoPRu,-0.5245168536111109
8018,GdClO,-3.478309693333332
8019,NiBi,-0.01870045343750082
8020,Pr2Ta2Cl2O7,-3.431619527307693
8021,Tb3Si2Cl5O6,-3.2323599618750003
8022,KEuF4,-3.6050134838333325
8023,KSbO2,-1.8866991319999995
8024,LaMgCu,-0.18023892833333358
8025,RbLa(MoO4)2,-2.5541930093750005
8026,YbMg2Cu9,-0.18955814875000007
8027,MnSO4,-2.0445040751760053
8028,PrN,-1.463882215
8029,Nd3CoGe2,-0.655453908333333
8030,Nd6Ge3S14,-1.772986229076087
8031,Nb4Te17I4,-0.6767024332
8032,YbCuSn,-0.5150597399999999
8033,Ba7Ca2Mn5O20,-2.603799109695741
8034,Sr6Sn2NF,-1.2095631147500008
8035,HoSnPd2,-0.8845158412499998
8036,Pr5Si3,-0.5453798793750009
8037,ScNi2SbO6,-2.177659115499999
8038,TiNbTlO5,-2.8648472111458343
8039,K2VH2OF5,-2.679460969409091
8040,K8UCr4(NO12)2,-2.0344051944615384
8041,Na2Co(NO3)4,-1.1673502317422872
8042,Rb3TiF7,-3.419390103484849
8043,TaTe5Pt,-0.669174835714286
8044,AcVO3,-3.1410690955000007
8045,HgPbF6,-2.0620417987500006
8046,NdAs2Au,-0.7625363418749993
8047,Lu(MnSn)6,-0.12794815673740126
8048,Eu2ZnGa,-0.36214276687499947
8049,Ca4Si3Pd4,-0.8103903599999995
8050,Eu3P4,-1.0328468783333327
8051,Gd3Ge13Os4,-0.3389968285000009
8052,Eu2BiS4,-1.6668597242857146
8053,Gd2CuO4,-3.0591071542857153
8054,Na2LiY(Si2O5)3,-3.1901894321241375
8055,CuRe2(H2O3)4,-1.5784240552173914
8056,Pr2ScSi2,-0.6605987759999998
8057,CaB4,-0.390896854333333
8058,CsHgCl3,-1.5567416299195405
8059,Cs2TeI6,-1.073189737318008
8060,SrZnSi,-0.412690582222222
8061,ErSbPd,-1.1160466699999994
8062,KNaCaMg5Si8(O11F)2,-3.2664007843637926
8063,Pr5Te7MoCl3O23,-2.3726756221794867
8064,KCaCO3F,-2.7942067957857146
8065,Sr5(AlSb3)2,-0.889972562948718
8066,Pr3Co4Sn13,-0.3677454302500003
8067,CeS,-2.2972746290624997
8068,Na2CaMg5Si8(O11F)2,-3.2566581144525864
8069,Mg3AsN,-0.8070416819999998
8070,HgI2,-0.5665872685416669
8071,Mg4AlB10,-0.13941403744444378
8072,La3(TaN3)2,-1.6167387722727269
8073,K4SnSe4,-1.2384924690416668
8074,AsPd3,-0.3647221406250001
8075,NaHSO4,-1.9044188688823884
8076,MgPd,-0.7418255349999998
8077,Ba2Ge,-0.4921709558333334
8078,Na3AlP3NO9,-2.628766942920892
8079,Pm2GePd,-0.7416578500000002
8080,Rb2EuAgCl6,-2.0286554336666662
8081,Cs2Ga2B2O7,-2.5164608658996457
8082,ErGa2Ni3,-0.5611629586111112
8083,AcTlHg2,-0.3943454364583334
8084,Li2YbPb,-0.4141920516666664
8085,RbEuO2,-2.585892590625
8086,K(FeS)2,-0.8754803358500005
8087,ZrZnIr2,-0.6452127000000001
8088,CsLiCrO4,-2.0967231337520524
8089,K6NaAu2IO8,-1.467503965252873
8090,YbGa2Ni,-0.59858518875
8091,TmAl2,-0.49893811388888903
8092,Pr(CuO2)2,-2.0091652235714283
8093,NaNb(OF)2,-3.1553505806752873
8094,Cs(OsO3)2,-1.6738341358812252
8095,PrAl4Co,-0.5061733008333338
8096,K4Eu2U(GeO4)4,-2.612427021555555
8097,CeSi2Pt,-0.9630233475000001
8098,Lu2Ga3Cu,-0.5718533770833325
8099,La2MgSi2,-0.6362346039999999
8100,CaNpH7O8,-1.9982626875735292
8101,Ho3Cu3Sb4,-0.7835629274999996
8102,DyCo3P2,-0.9387248644444447
8103,Ba2Si3Ni,-0.4710589888888895
8104,Yb3Ge13Ir4,-0.48450999825000024
8105,Bi2Te2Se,-0.5653206584687502
8106,CsLaHgSe3,-1.5322429299937141
8107,Ba3Ho2(PS4)4,-1.4906612855333332
8108,K2Mg(PSe3)2,-0.980323746066288
8109,LiBi,-0.3736252666666666
8110,LiSiRh2,-0.8362344008333329
8111,CaCo(GeO3)2,-2.283763970000001
8112,Ca(AsPd)2,-0.7413167119999997
8113,PaGaTc2,-0.26087550937500126
8114,BaSbF5,-3.3748041571428575
8115,Ta2Cd2O7,-2.6896818981818185
8116,Li4PbO4,-1.919143204259259
8117,Li2CdGeS4,-1.1042767661458335
8118,Sc2Pt2O7,-2.355797639090909
8119,KCa2Mg2V3O12,-2.831385522775
8120,LaAlH6,-0.4649204581249995
8121,LaAl3Au,-0.6582350029999994
8122,VClO,-2.1947749841666675
8123,Eu2TlIn,-0.40631571333333305
8124,LuCd2,-0.2632382466666667
8125,Ba2Fe3P6HO22,-2.629281020147059
8126,Y2MnCoO6,-2.8456534286264366
8127,Ba(Ni2B)6,-0.3110954681578942
8128,Sm2VFeO6,-3.0332302285000003
8129,SrVClO3,-2.7378691006944447
8130,RbReN2,-0.3685986315625005
8131,U3As4,-0.7649439442857145
8132,Nb5N6,-1.207369934999999
8133,Y(Ni2As)2,-0.6292543630952372
8134,KWCl6,-1.5944224966249996
8135,In3Pb,-0.0017624950000003636
8136,ZrSnH4NF7,-2.4634452785714283
8137,MnB,-0.5004360872988514
8138,TmNi3Ge2,-0.6139860161111115
8139,Rb3NaTiO4,-2.3615196469316726
8140,NdH2ClO2,-2.4016627741666667
8141,Ag7NO11,-0.5157268692982462
8142,Pr(ZnP)3,-0.5872042871428574
8143,CsAgSe4,-0.7166613610787831
8144,Ho2Ni7,-0.4005623716666662
8145,K(AsRu)2,-0.39995701459999966
8146,AcIn3,-0.4074859643750002
8147,Gd2ReO5,-3.1967967393749994
8148,LaTe3,-1.39951808625
8149,Rb2CdO2,-1.3610515665
8150,ErMnO3,-3.082495226252874
8151,Ho4Ga16Co3,-0.5044720432608694
8152,PrPb2,-0.47263632666666605
8153,Pr9Al5Se21,-1.8169713698348215
8154,Ta2Cd(P2O7)3,-2.7861877862500006
8155,MgNi3B2,-0.382955824166667
8156,BaPr2MnS5,-2.042117292061782
8157,Tb(FeGe)6,-0.2764495369230771
8158,Ni6Mo6C,-0.0940869319230761
8159,RbZr6CCl15,-2.204862670652174
8160,Tl2Au,-0.038164648888888784
8161,Y(GaFe)6,-0.32071587858974315
8162,CeCoSi2,-0.75215709125
8163,Yb2(Ga3Rh)3,-0.6612122116071427
8164,ZrH6NOF5,-2.178458429285715
8165,BaSrBi3,-0.7391027988333334
8166,Ce3Ni2Ge7,-0.6648423516666675
8167,Nd4CdPt,-0.53593356875
8168,K5As4,-0.43715076611111114
8169,Nb3Pt,-0.38158030249999975
8170,Rb3SbO3,-1.7804752742857148
8171,KHo(MoO4)2,-2.550152742958334
8172,NbO2,-2.8976281941666664
8173,FeAs2,-0.2641239466666671
8174,MgScIr2,-0.7131628387499998
8175,VFeCoGe,-0.25755868750000044
8176,Y2GaCo2,-0.4013947541666667
8177,NaPb3,-0.1288927316379307
8178,K3AuSe13,-0.7536399411452204
8179,U3(SiC)2,-0.23402993142857195
8180,Ba2Ge4Pd5,-0.6773221631818184
8181,Sm(ZnGa)2,-0.48575899000000006
8182,Sn(BiTe2)2,-0.4967115607142856
8183,Li2GdTl,-0.23931236750000018
8184,V2CoO6,-2.1249604372222226
8185,GaFeIr2,-0.22798679687500023
8186,Ba2GaS4,-1.7989683567857147
8187,ErVO4,-3.2126607425
8188,CrIrO4,-1.7191462516666671
8189,Pr(PdO2)2,-1.9334747699999997
8190,ZrSc2,-0.02196388833333292
8191,La2(Zn2Ge)3,-0.45596744045454524
8192,InRh3PbS2,-0.5800417594642856
8193,NaSnP,-0.299382229961686
8194,TaTiAl6,-0.3593283016666664
8195,IrF6,-1.827245924285714
8196,MgMnPt2,-0.5877434969827586
8197,La3(P3Pd10)2,-0.7062738581034482
8198,Tc7B3,-0.31854055124999975
8199,Pa3P4,-1.2333813533333335
8200,CeZnPt,-0.867384145833333
8201,Bi3SbO7,-1.7795944595454545
8202,TbFe2SiC,-0.5022209730000015
8203,Sc6Al16Pd7,-0.7319099475862066
8204,TmPt,-1.3223895583333336
8205,CeSbRh,-1.0467761975000005
8206,UCuP2,-0.6448983241666664
8207,PrH3(SO4)3,-2.0201160523355264
8208,BaMnF5,-3.414278764347291
8209,TiP2H4O9,-2.332015088593751
8210,Cs2LiCeBr6,-2.1355211469195403
8211,Rb3Zr2P5S18,-1.106563229122024
8212,Er2PbS4,-1.9180524717857144
8213,Tb5(ReO6)2,-3.346303697894737
8214,Ca2InPd2,-0.7256065609999993
8215,SrLi2CrN3,-0.9614785483333331
8216,Cu(BO2)2,-2.292747814523809
8217,Tb2ZrS5,-2.1907794241406258
8218,Cd3Se3O10,-1.3806390991894535
8219,EuSi3Ir,-0.7201554549999998
8220,SrSO4,-2.683281561215278
8221,MgZrF6,-3.990344354375
8222,TbGa,-0.6275026887499999
8223,YbFeSi,-0.4663521466666663
8224,K2Cd3Se4,-1.0485433003194444
8225,Np3S5,-1.7465685102343746
8226,Zr2OsRu,-0.5927787099999993
8227,Sc2Te5O13,-2.12809255025
8228,Tb2SiO5,-3.785080882500001
8229,KFe2H(SeO3)4,-1.4718585193687503
8230,Y2(AlNi)5,-0.6337578308333328
8231,Ho12Co5Bi,-0.29200579083333383
8232,Nd(ZnGa)2,-0.4679865290000002
8233,Rb(SnSe2)2,-0.8762013884821422
8234,RbSm2CuS4,-1.884496961875
8235,Pu2Te3,-1.3144241444999991
8236,Ba5As3ClO12,-2.7423819147619057
8237,CaYBO4,-3.5236402415476187
8238,ScNiB4,-0.565106026111111
8239,K9(WO3)20,-2.239102518393259
8240,Rb6InP3S14,-1.0871890574479164
8241,CaSn3,-0.40681982125000005
8242,DyRe2SiC,-0.465171002999999
8243,Pr12Ge5S28,-1.803499984277778
8244,BaCuSeF,-2.2387979099609376
8245,Ho2Fe3Si5,-0.6611268409999986
8246,RbHg2,-0.2695598258333332
8247,Tb5(Ge5Rh2)2,-0.810741964473684
8248,B8H4PbO15,-2.448924258779762
8249,Ce3IrI3,-1.242035668928571
8250,Al2NiO4,-2.8027414935714288
8251,MnZnRh2,-0.30163440948275877
8252,DyMgSn,-0.5608901299999994
8253,LuTlS2,-1.7286910148958334
8254,PdBr2,-0.694780405
8255,Eu3Pt2,-0.8611561449999992
8256,RbVSe2,-1.1629941524218754
8257,Hf5CuSn3,-0.3788190966666668
8258,Re2Sb4O13,-1.9438283836842114
8259,YbB4Os,-0.45486006694444353
8260,CeMgHg2,-0.3934238912499999
8261,SrI2,-1.962176153055556
8262,Ag5HgSbO6,-0.8133243037179488
8263,MgAlAg2,-0.1804985208333334
8264,Mg(InS2)2,-1.0978919435714292
8265,Ca3AsN,-1.165877991
8266,TbMgRh2,-0.6972406624999996
8267,YbAg,-0.41516239833333346
8268,KFe(SO4)2,-1.995345325979167
8269,UTeN,-1.4773638516666676
8270,NdSi2,-0.5556741433333338
8271,Rb3Tm2Cu4Br13,-1.5952126296969693
8272,MnBiAsO5,-1.8732557219288797
8273,UCoAs2,-0.5523179875000004
8274,Cs6Cl4O,-1.968969947507837
8275,V2Cu3Sb4,-0.1516378805555555
8276,EuVO3,-2.9598724105
8277,Li4P2O7,-2.743856606153846
8278,Ba2B5HO10,-2.9307847286574065
8279,Ba5Bi3,-0.89550969125
8280,Hf6CoSb2,-0.529892337222222
8281,LaCeSi2(BO5)2,-3.417804170312501
8282,Rb3Y(PO4)2,-2.9519340447023805
8283,Zr(BH4)4,-0.30302817984126984
8284,SmSbO4,-2.8251577475
8285,Cd2P2O7,-2.3476653665151503
8286,Sr5P3O13,-3.246592566587302
8287,V2Te2O9,-1.923640806923077
8288,LiBe2Pt,-0.5095317933333336
8289,TiTeS,-1.3194268788194456
8290,NiSb2,-0.32531335666666666
8291,Ba(DyTe2)2,-1.782160591071429
8292,YSiPd,-1.0105885038888889
8293,ErSbRh,-0.9864850358333328
8294,ScAsO4,-2.6865457866666653
8295,Nd6Cd(SiS7)2,-1.9012690066847822
8296,Sr2NbAlO6,-3.367163655333333
8297,ErPS,-1.715988640069444
8298,Tl2SeO4,-1.2358089630729165
8299,Zn22Ni3,-0.12900455759999999
8300,Y7Co6Sn23,-0.41847205393518533
8301,NaCaH6Ir,-0.6578741885057463
8302,PrAlCu,-0.36136216166666674
8303,NbTe4Ir,-0.6850193304166664
8304,Pr2MgPtO6,-2.8460950909999996
8305,InAs(H2O3)2,-1.5661445022916662
8306,TlPt2S3,-0.6937159154513891
8307,Nb4VSe8,-1.1918441718269226
8308,Sr2CaTeO6,-2.8043279123333327
8309,KRb5Zn4Sn5S17,-1.077130156519531
8310,Na4HgP2,-0.34931525112479483
8311,MgH4(ClO)2,-1.6341835222222225
8312,K2MnV2O7,-2.393485874077585
8313,Nd(CoB)4,-0.46194370351851904
8314,Pr2SO6,-3.1169398936805552
8315,LuSiAg,-0.5493624577777775
8316,HoPRu2C,-0.6750969696666658
8317,Rb(MoS)3,-1.0206138231249997
8318,Ca3YTi4O12,-3.5951057739999994
8319,HoNiC2,-0.3409996124999992
8320,SnICl,-1.074589296666667
8321,CsW3Cl7,-1.3643055839028213
8322,Ge3(Te3As)2,-0.2812255722727276
8323,GdOF,-4.1954335941666665
8324,TiTeAs,-0.8317303677777789
8325,PH11S(NO4)2,-1.370554934628622
8326,BeH8(ClO2)2,-1.4670368698333338
8327,EuNi4B,-0.30658073402777813
8328,K3TlF6,-2.7137104124833336
8329,Sr2PdO3,-2.3952415497222224
8330,Rb2AlAgF6,-3.0546327206666666
8331,Cs2GaSb2,-0.49968962617241386
8332,Tb(FeSi)2,-0.6462662539999997
8333,Ta6Co16Ge7,-0.3159907274137932
8334,YbAg2Pb,-0.32253552333333335
8335,NdGePd2,-0.8694632474999997
8336,Cs2KCoF6,-2.726761375886207
8337,Sr5Mg19Ge12,-0.39323842009259263
8338,Ag7AsSe6,-0.27923779165922624
8339,LiCrPHO5,-2.438734797407408
8340,Na2GaNiF7,-2.8333826430094042
8341,Zr2SnC,-0.7835163574999999
8342,NdBi2IO4,-2.276356374375
8343,Sr2CuOsO6,-2.149206312833333
8344,BaMgCuF7,-3.1011840222500004
8345,Ca2Si5N8,-1.407534257333333
8346,UMoC2,-0.3010100275000003
8347,HfB2,-1.0178834761111102
8348,Cs2I4O11,-1.1548091044624744
8349,Gd4Si2Se3O7,-3.1819091365332026
8350,HfI3,-1.1637752350000001
8351,BiSCl,-1.0133884560416668
8352,Ag3Sn2(GeP2)3,-0.041557308928571804
8353,Zr2N2O,-2.338462336250001
8354,K2HBrO,-1.7447389637000001
8355,CeSiIr2,-1.005952116875
8356,In3Ir,-0.15867886625000072
8357,TeO3,-1.3416823850000004
8358,TmGePd,-0.9791636655555559
8359,LaCuSO,-2.3553521520312506
8360,HfCuGe,-0.5102422750000007
8361,K9Ni2O7,-1.303301997472222
8362,Ni(NF7)2,-0.9762048414705885
8363,CaSb10(S3O5)2,-1.4503864143981484
8364,Er2GeO5,-3.392462402708334
8365,Li2AlAg,-0.24634081333333313
8366,Ta3Sn,-0.03239023375000194
8367,Rb5V3O10,-2.3878901280555556
8368,Cs,0.0
8369,MnV2O6,-2.332355423659005
8370,Al8(Pb3O7)3,-2.5211375953289483
8371,Hg3(BO3)2,-1.6654760366666665
8372,HoSO,-3.033668111041667
8373,Cs3ReO5,-2.137216561810345
8374,Eu2CuTe4,-1.2441751757142856
8375,MgAl6FeSi2(BO9)2,-3.1968767682777792
8376,KNa2Y(Si2O5)3,-3.191826036310805
8377,La(ZnAs)3,-0.5851666867857145
8378,InH4NCl4,-1.096935106
8379,Al5W,-0.1607674499999998
8380,Sn,0.0
8381,La4MgRh,-0.35340511875000047
8382,Ba(TbTe2)2,-1.7879508728571436
8383,USnTe,-0.5703394466666675
8384,NiGe,-0.30497307375000027
8385,NaBrO3,-1.0029033018103448
8386,Sm(ClO4)3,-0.9900833690624999
8387,As2Os,-0.218894
8388,GdAl3Cu,-0.44977786600000014
8389,K3Sm(BO3)2,-2.8188535879027783
8390,Mn2AlCr,-0.16105888646551758
8391,Er2Al3Si2,-0.5164237328571433
8392,KDy2Cl7,-2.67276725405
8393,Nd2Si2PbS8,-1.5346982861538463
8394,DyScSb,-0.9172717666666669
8395,ZnRh,-0.384347075
8396,Ce4SiI5,-1.3179807945000008
8397,Sr3(RhO2)16,-1.4727887388235292
8398,DyCd2,-0.3097192833333334
8399,Eu2AgSn,-0.5197504329166662
8400,HgS,-0.37900832906250015
8401,Sc2NiB2Ir5,-0.6850934278333327
8402,ZrCl2,-2.0537103066666673
8403,CeCdNi4,-0.3470388874999995
8404,Ho6Ta4Al43,-0.3050445189622643
8405,As2Pb2O5,-1.6421131663888886