,formula_pretty,formation_energy_per_atom
20050,Sr8Ga7,-0.3980586327222227
20051,Pm2AlIn,-0.4004671937499995
20052,Ca2Pr4(Mo2O7)3,-2.78900751530303
20053,Cs2P3,-0.4605917141724142
20054,K2Te2Pt,-0.9762814352000003
20055,K3AlAs2,-0.5106649460833333
20056,Zn(InSe2)2,-0.8633086013392851
20057,LuZrF7,-4.234006486944444
20058,Ca(ZnN)2,-0.5229833920000004
20059,La5(Sn5Ir2)2,-0.7046167168421047
20060,Dy6FeTe2,-0.7040786933333342
20061,TbGa2Ni3,-0.5556025924999999
20062,Sr2MnZn2(AsO)2,-1.5065240812515965
20063,Er3AlC,-0.4317444040000005
20064,Rb2LaBr5,-2.2713427115625
20065,HPd,-0.08305816999999927
20066,Na2Nb3O6,-2.65577638846395
20067,Tm(CuO2)2,-2.0991148223809515
20068,TbOs2,-0.2841044325000001
20069,Er2Nb3Ge4,-0.739491047777778
20070,SbPdS,-0.6214260618750002
20071,Eu2FeP3Pt7,-0.770350392307692
20072,YMnFeO5,-2.513020843699712
20073,K22Nb13In11(PO5)24,-2.7361931219789475
20074,DyPPt,-1.348252847777778
20075,KV3(SeO6)2,-1.9768008523715277
20076,Tl2GeF6,-2.548082748518519
20077,U2Si4W3,-0.2851142044444433
20078,Ce2Mg17Ru4,-0.17319292913043496
20079,Cs2BrCl6F,-1.2039077625862071
20080,Re3(SBr)7,-0.786156559080882
20081,CrIr3,-0.24056080499999943
20082,HfGePt,-0.9025588916666673
20083,Ba3In2(HO)12,-1.8224432990517243
20084,Cs2CeAgBr6,-1.8908962192528733
20085,Pb(NO3)2,-1.0690376949999996
20086,Cs3Cr2Br9,-1.6278786186637926
20087,TiGe2,-0.41886831777777783
20088,LiCd2Pt,-0.4280121883333332
20089,Pm3Tl,-0.20407541145833274
20090,Na6W6Se2O25,-2.088763087025586
20091,TmAl4Ni,-0.5361711694444443
20092,Mn2Al4Si5O18,-3.178988873305589
20093,K4Ba2SnAs4,-0.6767971160909092
20094,Li3VFeP2(O4F)2,-2.852232475686275
20095,Na2PdF4,-2.368902986157636
20096,NaTl2MoF6,-2.561619790821838
20097,Cd2SnO4,-1.7174426921428574
20098,LuSeO3F,-2.8625304133072924
20099,Cs2Mn(PSe3)2,-0.8602560881383884
20100,K2CdGeO4,-1.9412849187187495
20101,TmPd3,-0.9268286691666665
20102,Gd(CuSi)2,-0.5696613260000006
20103,PrCo5P3,-0.7586616413888897
20104,YUTe6,-1.046272888333334
20105,YIr,-0.8203223183333339
20106,BaMgMoF7,-3.5073536599999997
20107,K2MoCl6,-1.7952310651111105
20108,Rb3NpH4O7,-2.1054041029166664
20109,RbSm(WO4)2,-2.6576517685416667
20110,Mg2Ga,-0.13678716361111082
20111,AcMgZn2,-0.24337991562499983
20112,Ba4Nb14O23,-2.8112764737804863
20113,NaMn3Ag(PO4)3,-2.380947113600574
20114,Tb3InN,-1.057309309
20115,SrLiVF6,-3.574542677777778
20116,LaCuSn,-0.5955177749999999
20117,RbSbWO6,-2.1642033997222225
20118,Er2Si5Ru3,-0.8125141420000006
20119,U6Cu2S13,-1.5534080102678567
20120,ZrGaPt,-0.9753994397222228
20121,BeSiN2,-1.4013081931249998
20122,CsV2P5O16,-2.7040812966499046
20123,Cs2KGaF6,-3.0791220681362064
20124,GdCd,-0.345093125
20125,SbTeOs,-0.22617764666666673
20126,Sr2LaSbO6,-3.045345017833333
20127,GdIO,-2.572313260833333
20128,PrAgSb2,-0.7847896491666666
20129,NbP,-0.9815329116666671
20130,Zr3(Cu2Si)2,-0.5127658655555547
20131,BaLi2Ti6O14,-3.396179613550724
20132,Cs2NbF6,-3.248234163429119
20133,La7Pd3,-0.5208922575000002
20134,Cd(FeO2)2,-1.6223567499999996
20135,DyB4Mo,-0.6282089361111112
20136,Ba2Ta15O32,-3.2104357114285715
20137,Nd3Bi4Au3,-0.7285970290000001
20138,Cs2YAgCl6,-2.2156957959195402
20139,Ti2AlGe3,-0.4628363219444438
20140,Nd2MgSi2,-0.6474450189999998
20141,Ti2CuS4,-1.4383354177380951
20142,Pb2S(O2F)2,-2.174458354791666
20143,Rb2ScAgF6,-3.1972276151666668
20144,Be2CoIr,-0.46512949875000054
20145,Sm2CuTe2(SO7)2,-2.275141493630951
20146,Pm2NiGe,-0.45671710500000007
20147,GdTa3O9,-3.5080629303846154
20148,YCd3,-0.2930405429166667
20149,Y3Zn11,-0.3491040500000001
20150,YbFe5P3,-0.6838235719444441
20151,Sm3Eu3S8,-2.3418880125
20152,NdAl2Ni,-0.5861400175
20153,Ho(AlC)3,-0.30293288285714226
20154,Pr(SiRu)2,-0.8473113409999996
20155,YbZnGe,-0.5516644699999999
20156,CsNa3TiO4,-2.4029587753799486
20157,EuPPt,-1.170263961111111
20158,Tm6Ti4Al43,-0.32992801808176137
20159,TmCu5Sn,-0.24933882202380936
20160,Ba16Re6O37,-2.7926410704237283
20161,PuS2,-1.7516284570833338
20162,ScAu,-0.8081003674999998
20163,VSO5,-2.098286235803571
20164,Nd(FeSb3)4,-0.32520958529411814
20165,YbBPt2,-0.8910092022916665
20166,Sm9Al5S21,-2.0123866985892853
20167,Ca3Nb2CoO9,-3.0549179218333338
20168,Cs3Y7Se12,-2.083177159253853
20169,P4S3I2,-0.3969869755787043
20170,Li6PBrO5,-2.4535468327564107
20171,Li2CN2,-0.8393178553333328
20172,Sr3NiPtO6,-2.2750229888636357
20173,Al3Ni5,-0.5658915687500006
20174,Sc12Ir3Br16,-1.7606675819354847
20175,K2LiFeF6,-2.981037112433333
20176,La3(OsO5)2,-2.7808864843333327
20177,La2Ni4Ge3P,-0.7732756388333343
20178,NaBi(PO3)4,-2.5395436126325044
20179,Hf2MnIr,-0.6502851444827602
20180,Fe2Te4H3ClO12,-1.4832917488636368
20181,YGaRh2,-0.7860080660416662
20182,LiCu2Ge,-0.18276138458333335
20183,LaHg,-0.49974772000000023
20184,Yb2CdGe,-0.5646137962500002
20185,Li2Eu5O8,-2.9890789621111122
20186,Ca4MgAl3,-0.21519329343749982
20187,NaPr3Ge4O13,-2.795989074835798
20188,Fe3NiP4,-0.5667298066666664
20189,Ho2Pt,-0.9572156433333335
20190,Y2BeAlBO7,-3.546551505624999
20191,CsAgF3,-2.13264874941954
20192,CaRhO3,-2.0930562969999995
20193,Rb2Mg2(MoO4)3,-2.3399519601315784
20194,TmMgIn,-0.351086401111111
20195,UNbC2,-0.41199966749999817
20196,TlAuF6,-1.731559410104167
20197,P4S7,-0.498638939564394
20198,Sr(FeP)2,-0.8237839306666672
20199,Sm2Pt2O7,-2.3927504022727266
20200,ZrRh3,-0.6734198449999997
20201,Dy5Ir2,-0.6608164907142863
20202,YbInPt,-0.9214959355555558
20203,Al(CrB)2,-0.4657621776666659
20204,TiBe2,-0.19378267611111136
20205,CdPPd5,-0.4546148847619043
20206,CsCoNiF6,-2.428573218659004
20207,Sr2In3Rh2,-0.48501390333333355
20208,Ce2HfSe5,-1.9414628136523433
20209,Ba7Al4Sb9,-0.8669654434999998
20210,MnOs3,-0.03174167573275888
20211,CsNbWO6,-2.6314938908812278
20212,CsCe(PO3)4,-2.90548600534802
20213,EuTlHg2,-0.3683046145833333
20214,Hf6Al16Pd7,-0.7088381606896558
20215,DyLuCu2,-0.2658203575
20216,Zr2TcRh,-0.6357248425000002
20217,DyFe3,-0.06933019750000113
20218,Cs2ZrF6,-3.675029908984674
20219,Eu3Sb4Se9,-1.1846938549121093
20220,AlTlBr4,-1.4664382638888889
20221,BaMnP2O7,-2.917258144508882
20222,ZrSiSe,-1.2098894207812496
20223,Cs2ScTlI6,-1.484533625419541
20224,IrRu3,-0.052695269999999184
20225,DyPbAu,-0.6781180866666663
20226,La12Co6Pb,-0.1927100857894737
20227,Ba2LuRuO6,-2.8878038855
20228,CsYbCl3,-2.7009028315862067
20229,BaNdMn2O5,-2.756929486762452
20230,Na5U5O18,-3.221075723669952
20231,TbSb,-1.2367141799999999
20232,RbAsSe2,-0.854188581484375
20233,Tb5(SiSb)2,-0.9496295277777773
20234,Na4Ce(As2O7)2,-2.172963160922038
20235,Rb2Th(AsO4)2,-2.5214122492307687
20236,Cs3Er2I9,-1.7411528595566506
20237,CaIn2O4,-2.3947961692857143
20238,Ta2OsW,-0.2985471037500016
20239,Na3MnAsCO7,-2.0655314267374
20240,PrMg3,-0.12607612874999985
20241,MgTa2O6,-3.3311913099999995
20242,Y(MnSn)6,-0.14204934263483765
20243,Ba2SrSeO6,-2.496048671901042
20244,Tb(MnGe)2,-0.4871606111724134
20245,PrBN2,-1.4907168368749986
20246,Rh3Se8,-0.7262920380681819
20247,AlSiNi6,-0.44444840124999896
20248,Ca4Ni4Ge3,-0.5218469240909094
20249,Mg5B3O9F,-3.111261745138889
20250,SmMgAu,-0.6657770905555557
20251,Cs2PtS6(O3F)6,-1.9208081563518817
20252,Tb4Se3N2,-2.0590101918923613
20253,GdB6,-0.45662003499999926
20254,Zr18Co5Sn4,-0.3889832116666675
20255,Np(CoSi)2,-0.4918150757500001
20256,CdHOF,-1.801497528125
20257,K3Bi(PS4)2,-1.0230017662976185
20258,MgGaRh2,-0.6906839443750004
20259,Na3Fe2(AsO4)3,-1.8933107077327578
20260,Lu2InAu2,-0.8048454749999998
20261,U3Sb4Pt3,-0.6849276670000009
20262,LaSiPd,-0.9588179845833326
20263,Ca21(Cd2Bi9)2,-0.7722089498837209
20264,Cu5Se2(ClO4)2,-1.035077199981618
20265,NaAgO,-1.04675580190613
20266,Li3MgZn5(BH4)15,-0.2626285699702383
20267,KNdTiO4,-3.3519985241190478
20268,As2Cl3OF5,-1.8945630420454542
20269,Cs2P4Pd3O14,-2.189241711269365
20270,CsK2Ho(PO4)2,-2.9909825786141204
20271,NpF6,-3.4686940780357145
20272,Ta2Se8Br,-0.9481046862499999
20273,Sr2GeSe4,-1.571544016815476
20274,Eu5Pt2,-0.6811990464285722
20275,Na2NbF6,-3.2000272509003826
20276,Tl4SnSe3,-0.5610544622330726
20277,AlSeCl7,-1.3489241058159724
20278,HoPd,-0.9431268900000003
20279,Zr,0.0
20280,Mg2AgHg,-0.2342714404166666
20281,CaTbRh2,-0.6065255699999996
20282,GdCu,-0.21128852499999873
20283,Na6GaAs3,-0.41409912968103446
20284,Rb2NaRhF6,-2.641656980655172
20285,Ba5Si(Br3O2)2,-2.9440629953124997
20286,U2B6W,-0.5501747958333331
20287,Li9(NbS2)14,-1.5321264748529424
20288,Al(SeCl2)2,-1.321299250669643
20289,Sr(AuF6)2,-1.7605899387777777
20290,SrP3,-0.6410373835416667
20291,Ti3Zn3N,-0.7668723353571433
20292,KY(H2N)4,-0.6512183192619047
20293,Cs5Bi(MoO4)4,-2.1331431386405844
20294,CeAl3,-0.41309222249999955
20295,Rb4Ge(PSe3)4,-0.806760072093254
20296,CsUNbO6,-3.2367434414367824
20297,BaGdCuS3,-1.9588811415624992
20298,MgZr3Tl10(MoO4)12,-2.0873589928828826
20299,Li3LaP2,-1.0112741069444446
20300,KTb2CuS4,-1.9116913488125
20301,Cs2Al2P2O9,-2.9935912038352503
20302,Be3As2(H2O5)2,-2.010594704210527
20303,HfBeSi,-0.6309166883333326
20304,Cu3(PO4)2,-1.8671725974358968
20305,Ta2VOs,-0.33210836874999927
20306,PdAu3,-0.07882594499999929
20307,La2(Ga3Ru)3,-0.5363014291071428
20308,Ba2TlSbO6,-2.282291083333333
20309,KNa3Al12H24(SO7)8,-2.201368682092838
20310,Ca5B3O9F,-3.379485741388889
20311,Yb2FeSbO7,-2.3892261531818177
20312,Zr(Zn10Co)2,-0.17033341326086965
20313,Tm2B6Rh,-0.673194999537037
20314,Mg(NO3)2,-1.3542742161111119
20315,LuRh3C,-0.5525655260000008
20316,Ca(CoO2)2,-1.8857562796428573
20317,GeClO2F5,-1.8133559624999995
20318,CaNiH3,-0.5625987510000001
20319,Ce4Ge7,-0.6675721190909091
20320,Ba10Pr4Y(CuO2)20,-2.032483454622222
20321,BaSb2Pd,-0.9061895562500002
20322,Ti2CoO5,-2.9666561930208335
20323,BaCdP2O7,-2.7962443469696967
20324,CsEu(WO4)2,-2.4586217535775865
20325,Na3GaP8O23,-2.595286609252053
20326,NaSbS2,-0.9298336269504315
20327,Eu3(GeIr)4,-0.6826322877272717
20328,Ce3(Sn3Pd2)2,-0.7171357413461539
20329,BP(IBr)3,-0.6607949743749999
20330,Na4Er2(IrO4)3,-2.118905451724138
20331,Na3SiSe4,-1.1039635428475219
20332,LaAlPt,-1.0552967099999997
20333,Zr2Co12P7,-0.7880607858730164
20334,DyB4W,-0.5963540569444454
20335,LiGaSe2,-1.1465243457552088
20336,Ba3Au2,-0.6060254966666666
20337,Sr(NO3)2,-1.572169006296296
20338,Rb2ZnCl4,-2.0160822213095235
20339,Er2ReB6,-0.661088383333333
20340,Ba2CuBrO2,-2.365811804583334
20341,La3AsBr3,-1.9387528657142856
20342,Ba(BrF4)2,-2.1063857249999995
20343,ErMgAu2,-0.7900702024999999
20344,Cs3Ti2Cl9,-2.2143353325328405
20345,Mg2Zn11,-0.06709355641025656
20346,Rb2Zn5As4,-0.32710852999999995
20347,Ba2CaGa2CuF14,-3.38031710475
20348,K3(CuS)4,-0.8522355542272725
20349,CrP6(WO8)3,-2.5286672541176474
20350,Mg3Sc,-0.03914480624999994
20351,MgSe,-1.4893916961718752
20352,EuSeO4,-2.104448772057291
20353,NaLiHo2F8,-4.027790368323755
20354,SrNiSn3,-0.4356997063333338
20355,Ti5SiSb2,-0.678759297708333
20356,SmPt,-1.1929942175000008
20357,NdCO4,-2.509735220833335
20358,Ca5Au4,-0.7639881994444444
20359,Mn2(SO4)3,-1.8810343082492391
20360,HgHClO4,-0.684561223571429
20361,NaLa2TaO6,-3.507585510655173
20362,RbH3(SeO3)2,-1.4057169678906252
20363,Ca(AlZn)2,-0.28946907599999994
20364,NaIn(SiO3)2,-2.8000169371551733
20365,AcMgCd2,-0.26452347062500015
20366,Sn4As3,-0.09050702785714293
20367,NdMgSn,-0.6021179133333329
20368,Ti2Co,-0.2849037747222229
20369,Tb2B6Ru,-0.6521184516666657
20370,Ga2Te2Cl7,-1.2914233979545457
20371,ScGa3,-0.5006723293749991
20372,ZnGeAs2,-0.16511559750000027
20373,CsTiMnOF5,-3.329928629077268
20374,TiCuNi,-0.30937436777777805
20375,CeSnPd,-0.837905040833333
20376,TiMnCr,-0.18996333958812292
20377,GdInPt4,-0.8007465833333333
20378,CsMo3Cl7,-1.5282598473119124
20379,BaNdCuS3,-1.8938457598958334
20380,Ho2InNi2,-0.5361853459999999
20381,Gd2FeSbO7,-2.8410892127272716
20382,Zn2ReN3,-0.0768577766666662
20383,SrNi3(P2O7)2,-2.4989146093181827
20384,SbSCl9,-0.9689782134659097
20385,Nd3Os,-0.10474998812499958
20386,Eu2Nb5O9,-2.8282792715625007
20387,Eu2InPt2,-0.8804232150000004
20388,TaTl2AgS4,-0.8720846029166669
20389,YbCoO3,-2.179786473
20390,Ba5Ta2Cl2O9,-3.3115853955555568
20391,KTlCl2,-1.7919706847083332
20392,Y5(CoTe)2,-0.8343162787037046
20393,K3CoF6,-2.6934769138999997
20394,CsLu3F10,-4.320071259137931
20395,HgSb2Xe5F22,-1.6468231640833333
20396,Rb2Pd3S4,-0.9509946236111114
20397,Dy5(SiSb)2,-0.9443880472222221
20398,Li2TlHg,-0.30319408875
20399,Cs2TlGaF6,-2.85628129016954
20400,Cs3Nb2AsSe11,-1.0597552949749618
20401,Tm2IrPd,-0.9895919283333328
20402,Lu2MnS4,-1.9331600343472917
20403,Fe2W,-0.023244380000000103
20404,Ti3Pt5,-0.9417133700000004
20405,K3NaSn3Se8,-1.0251700476201155
20406,In2Ge2O7,-2.061546354090909
20407,Ho6Nb4Al43,-0.33071816547169847
20408,HoMgCd2,-0.29568563749999965
20409,La10Se19,-2.1208009025700427
20410,EuSn,-0.6864042274999997
20411,Np(GeRh)2,-0.5430281657500003
20412,TbMnB4,-0.6418440136829501
20413,Be3P2(H2O5)2,-2.42334497140351
20414,KHgAs,-0.3519771876666666
20415,AsClOF8,-1.7746075486363642
20416,Ca2ZnN2,-0.8494707179999998
20417,CsCr5Te8,-0.5694828477093594
20418,LiPr2IrO6,-2.702287160833334
20419,KSm(WO4)2,-2.6621006944166674
20420,Zr6Ag7F31,-3.1326166396401516
20421,TiTc,-0.4965761166666667
20422,MnSbPt,-0.4281849759770111
20423,Sm2SeOF2,-3.7148053706684028
20424,TbSb2Pd,-0.89882677625
20425,CsEr(NbBr3)6,-1.5134568195358091
20426,CaInPt,-0.8215951866666664
20427,SmCu5,-0.1746344441666666
20428,Tm4Co3,-0.22592611023809522
20429,Rb4Nb35Al2O70,-2.881253033693693
20430,Rb2LiScCl6,-2.4008603333333327
20431,Sm3(SiRu)2,-0.6753681346428563
20432,Sm2TlCd,-0.3594159933333332
20433,Mg5(Si8Pt5)2,-0.5995388529032258
20434,LuTl(WO4)2,-2.5098463769444437
20435,TbGa2Co3,-0.3831722916666666
20436,K4SnSb2F14,-2.9430127048571433
20437,Zr2Co,-0.25729491833333284
20438,TaBeRu2,-0.3739129812499993
20439,ZnP4O11,-2.4797146541145834
20440,LiTcH6O7,-1.5933597412222222
20441,EuZnSn,-0.5428427441666676
20442,FePt,-0.23211507500000028
20443,LaSiRh,-0.9712639574999997
20444,BaYbSn3,-0.6216472370000001
20445,Cd(GaO2)2,-2.0356821271428567
20446,KVPbO4,-2.1917504532857146
20447,TlCr2FeO8,-1.6364621244444446
20448,Mg(AlB14)2,-0.09586106376344017
20449,HoCu4Ag,-0.2413507261111114
20450,Sr4Al6SO12,-3.3754152673822455
20451,ErBrO,-3.354913849166667
20452,Xe2NO2F13,-0.8410655445833335
20453,SrMgH4,-0.49759921527777823
20454,ErCdAu,-0.6433718033333334
20455,YB4Ru,-0.6239124038888887
20456,TmGa2Pd,-0.7937223241666667
20457,KV2SbO8,-2.2404433635833336
20458,Ba3CuRu2O9,-2.117638643666667
20459,Nb2Tl3CuSe12,-0.7705891910069442
20460,CuSbS2,-0.4942459828125001
20461,Li3FeN2,-0.5145898816666671
20462,Zr3Si2,-0.8547950399999991
20463,Tb5CoBi2,-0.5554838624999991
20464,Ca(TiS2)8,-1.711308124266667
20465,Ge3Ru2,-0.3527604955000001
20466,BiPtSe,-0.5009598207812497
20467,Li3RuO4,-1.940141738125
20468,Ba2GeAs2,-0.8937376084999997
20469,HoFeC2,-0.2720624674999996
20470,HoBi2IO4,-2.329558549375
20471,ScAlPd2,-0.950400351249999
20472,Ca4Al51Cr7,-0.16725145790322649
20473,K(MoSe)3,-0.9097604064330349
20474,K3Au3Br8,-1.176693303142857
20475,Sr14MnBi11,-0.848056484183245
20476,SrPAu,-0.9072870500000002
20477,Ca(Ni2B)6,-0.3539183502631573
20478,Na2Tl2B10O17,-2.6588967610140894
20479,NdZr2F11,-4.151461449464285
20480,GeSe2,-0.5724803032291672
20481,TmAg(PSe3)2,-0.8343932194062497
20482,PrZr2F11,-4.149495660178571
20483,U2Sb4Pd,-0.4791209571428569
20484,Hf2Al3Zn,-0.43298730000000063
20485,HoIr2,-0.8358033850000007
20486,MnH2Cl2O,-1.5110488629885055
20487,Dy2(B2Rh3)3,-0.6357394132352944
20488,YbCo5P3,-0.7894203088888898
20489,Cu2O,-0.644491993333333
20490,BaV10O15,-2.5213482423076923
20491,Lu5(Co2Ge5)2,-0.6285096057894733
20492,BaFe(Si2O5)2,-3.1028727378125005
20493,HoGa2Ni,-0.6540516837499988
20494,Dy3Ni2,-0.3657933620000001
20495,Li3TiF6,-3.3701793550000008
20496,Na5Ho4Si4O16F,-3.3272562661752874
20497,Zr5AlSb3,-0.7756494294444438
20498,V2N,-1.0904292561111109
20499,ScGa2Ni,-0.646263607499999
20500,K2Ce(PO4)2,-3.0187360302051283
20501,BPd2,-0.266144823055555
20502,Na2MgCrF7,-3.2831870996003145
20503,V3B4,-0.8187663323809521
20504,Er3(CuGe)4,-0.6223152781818183
20505,Yb2PdAu,-0.9117326575
20506,CeU5O12,-3.807279016944445
20507,YbH2,-0.7214731108333338
20508,Ba2NdTaO6,-3.4945306979999997
20509,CsEuBr3,-2.293614688086207
20510,Nb2C,-0.4666597966666674
20511,Ho3Rh2,-0.7869810577142857
20512,YZnRh,-0.7226493688888892
20513,SmMn2O5,-2.6285352535452597
20514,DyAl2,-0.5168288300000002
20515,Ba4Na2W2O11,-2.7160141483212343
20516,La(PRu)2,-1.047639618333332
20517,CeBi3,-0.4393281987500002
20518,CsHo(WO4)2,-2.646369181494252
20519,Dy3Te3N,-1.7371251946428576
20520,Tm(FeGe)6,-0.2784982651282057
20521,LiZn3,-0.1710353720833333
20522,ZrGePd,-0.9031193275000007
20523,Be2RuPt,-0.5183394337499996
20524,BPd6,-0.199356785595238
20525,UBiTe,-0.559597331666667
20526,Zr2Ga3Cu,-0.5246008087499993
20527,MgGeN2,-0.758754960000001
20528,Nd3Sb5Pd6,-0.8832459478571428
20529,Th2C3,-0.26456998949999927
20530,LaP,-1.5682658091666672
20531,YbInCu4,-0.28015393833333313
20532,Y2(Al3Rh)3,-0.8370344759523799
20533,NaMg(PO3)3,-2.791201877164409
20534,Cd2PbO4,-1.3809301757142858
20535,TbH18(BrO6)3,-1.1957849726875005
20536,SmGa3Ag,-0.4623623648333336
20537,CaAs,-1.0891803150000001
20538,Rb2InCuCl6,-1.6781217255
20539,Na2MgAlF7,-3.581392893691223
20540,RbSc5Te8,-1.4777319558928568
20541,HoSnGe,-0.6146180233333336
20542,HfI4,-1.2166095270000006
20543,NbTl(BO3)2,-2.6866037691666675
20544,Y(MnGe)6,-0.31964998186560606
20545,Er5Ge3C,-0.7388282116666676
20546,Pr4Ge7,-0.7247443018181822
20547,PrPd,-0.7908725999999993
20548,Cs(NbS2)2,-1.4886989243472917
20549,Cs10Tl6SiO4,-1.0289763071100166
20550,PHPbO4,-2.1773840904761905
20551,MnCO3,-2.0138250255862062
20552,Ce2Co12P7,-0.7752966034920641
20553,Cs2KPbF6,-2.7801841463862074
20554,EuSnPt,-0.9221866966666662
20555,Ce(AlGa)2,-0.42961067199999975
20556,Rb3ScV2O8,-2.6845121519642854
20557,Tb5Tl3,-0.30938867874999954
20558,Th7Rh3,-0.5796440129999993
20559,HoNi4Au,-0.3967216183333324
20560,V2FeSi,-0.45919182999999997
20561,Yb(Al5Ru)2,-0.4703581534615384
20562,Eu2TlHg,-0.4828815170833334
20563,V2AsO6,-2.2020551836111113
20564,Na8Zr3Si16Sn(H4O13)4,-2.661863494243894
20565,In2Se2O7,-1.588759403607954
20566,LiSn4Ir,-0.3057216122222221
20567,ZrBe13,-0.19806794892857177
20568,Ca(ErS2)2,-2.387090856071428
20569,K4Zr6CBr18,-1.869573775758621
20570,PaS3,-1.3631782085937498
20571,La3In2(GaO4)3,-2.8725419738749998
20572,AcCl3,-2.940648680625
20573,Er4CdNi,-0.307214132083334
20574,ScBO3,-3.4369411568333326
20575,Er2FeGe4,-0.5626572757142857
20576,Th3Pt5,-1.2341875
20577,TmGa5Co,-0.460289709880952
20578,InGaS3,-0.9224489027083332
20579,V3(Bi3O8)2,-2.0005822003999993
20580,V2Pb2O7,-2.1450676584090913
20581,Ti2Te3,-0.9760300883333344
20582,Gd2(MoO4)3,-2.639436278235295
20583,As3Ir,-0.42916528625000083
20584,CsAl(H2N)4,-0.5985813469950746
20585,Co4Se3Cl2O9,-1.301960483585069
20586,Ca(CuO2)2,-1.710242645
20587,BeSiOs2,-0.2779375287499999
20588,ZrSnPd,-0.7842877050000006
20589,Gd10S19,-2.1312234735991384
20590,MgSiRh2,-0.7560196600000006
20591,Mg149H,-0.014912967233333347
20592,YZnAsO,-1.980399881666667
20593,MnZn4Se5,-0.8858949829649785
20594,BaTe2F10,-2.909258913461539
20595,CsSbWO6,-2.1747397603256706
20596,K3NbS4,-1.4792972245624996
20597,CaGa2,-0.519013666666666
20598,In2PO5,-2.284010509791667
20599,CsPPbSe4,-0.8334361218770522
20600,SmNb6Cl13O3,-2.1156227601086957
20601,Tc2O5F4,-2.069475692272727
20602,CrH9(BrN)3,-0.7401320210937508
20603,LuRh2Pb,-0.5973877824999994
20604,Zr(TiGa2)2,-0.5198440495238097
20605,U(Cr3P2)2,-0.5334011043939391
20606,ZrCuGeAs,-0.5904341462499998
20607,Cs2LiV3F12,-3.231630511621967
20608,Tb3(GeRh)2,-0.9188195807142857
20609,Ta3B2Ru5,-0.5287113638333338
20610,Rb2FeH12(SO7)2,-1.6222899339112904
20611,K2Mn2(MoO4)3,-2.1340760162822154
20612,TbNi3,-0.4031892250000008
20613,Ba6Nd2Al4O15,-3.360272599074074
20614,DyAl,-0.4156260456250003
20615,KFeAs3H7O13,-1.577951465320001
20616,LaPIr,-1.1951113611111122
20617,YTlPd,-0.6666915377777782
20618,LuTlRh2,-0.5954208708333333
20619,Sr3SiO,-1.4456261515000002
20620,K4CdCl6,-2.063047284272727
20621,K2Al2B2O7,-2.9943493761025652
20622,LiYb(CuP)2,-0.6925721000000001
20623,K3Pr2(NO3)9,-1.469504680036585
20624,PrLuS3,-2.375222002875
20625,Tb2(Ga3Rh)3,-0.7147950380357138
20626,Sn2Pd,-0.38873621291666716
20627,YB4W,-0.5864513634722215