,formula_pretty,formation_energy_per_atom
23531,Sc3(ReSi2)2,-0.691329778611109
23532,Li5(CuGe)2,-0.3065187251851853
23533,Ho5Sn3,-0.7154154437499995
23534,KEu2Cd2Sb3,-0.7464236697500004
23535,CsSnBr3,-1.5634122350862072
23536,ZrSnRh2,-0.7407130362499998
23537,TmCuPbSe3,-1.2298472135329863
23538,LiSc2Pt,-0.7343595883333336
23539,K2Al2Sb2O7,-2.5361834362307687
23540,CoSnF6,-2.6533118868750005
23541,LiPaRu2,-0.3375204258333335
23542,KPSe3,-0.8043795805062501
23543,La(NiGe)2,-0.6910069750000005
23544,CaSbAu,-0.8648060216666664
23545,AgHg2NO5,-0.6836630115740745
23546,Rb2Cd5As4,-0.2857263940909091
23547,Li2VCrP2(HO5)2,-2.5153513651851855
23548,PrAlPd2,-0.8680158149999997
23549,Na5AgGe2Se7,-0.9585086167221026
23550,KSb,-0.5270346771250001
23551,GdCrTeO6,-2.522575664444444
23552,KAgSnSe3,-0.823068164866319
23553,RbGd3F10,-4.2263168505357145
23554,Li2Sm2Si3,-0.5899304645238094
23555,Tb2AlCo2,-0.37671035600000025
23556,ZrFeGe2,-0.5091544270833334
23557,ZrSiS,-1.3450657043749992
23558,Nd2CdRh2,-0.5936260229999994
23559,Li4MnV3(P2O7)4,-2.6948556158620693
23560,Li5Mn5(SeO3)8,-1.7444968919064732
23561,LuCoB4,-0.6345198977777772
23562,B10(Pb2O7)3,-2.458742290180181
23563,Lu2S3,-2.3488266338749995
23564,RbInAs2O7,-1.9190035990909087
23565,Ag5(PbO3)2,-0.8062522625641025
23566,BaSn2S3,-1.2600662773958338
23567,PrSnPd,-0.9027671077777784
23568,Na5FeO4,-1.6399936742758618
23569,SmInAu2,-0.6961472337500001
23570,Tb2Ga5Cu3,-0.4472991617499993
23571,SbIrSe,-0.6835639716145844
23572,K2TlPCO7,-2.1363934185555546
23573,Na2SrSn4,-0.3542603556814455
23574,TbYbRh2,-0.7600883999999999
23575,Tl2SiF6,-2.9417733724074075
23576,Sm(Re2Si)2,-0.433316988571428
23577,CsTbCdSe3,-1.5936069816603808
23578,Sm2CdCu2,-0.27176209400000034
23579,SrEr2O4,-3.7792738555952385
23580,K3NaMnCl6,-2.0431104507711595
23581,CsGaAgF6,-2.513099922733078
23582,Ta3NO6,-3.0265760328333338
23583,CsLu7S11,-2.3292298802529494
23584,YErTl2,-0.34237542083333317
23585,Sr4TaFeO8,-3.0666018826190475
23586,Sr5(AuO4)2,-2.344490035555555
23587,Li2TlPd,-0.3588496724999999
23588,Ho6Al7Cu16,-0.3737967424137927
23589,LaCd,-0.32456173249999987
23590,Ce3CuSnS7,-1.697172677239583
23591,SmMg2Ni9,-0.2601450104166669
23592,Ba2NaOsO6,-2.388088917155173
23593,KVO3,-2.4108654021000007
23594,Ho5IrBr9,-2.0096675638333332
23595,YbNi3,-0.3616641566666665
23596,Pu2SnPt2,-0.7730474920000006
23597,NaLa(GaSe2)4,-1.2145412096644088
23598,DyFe2Co2B,-0.2940769706944444
23599,Li2SbAu,-0.5858173516666669
23600,CsTb2Cu3Se5,-1.3274104422408897
23601,La4B4I5,-1.2836859985897429
23602,Sr3Al2Cl2O5,-3.303141754375
23603,Li5OsO6,-2.059607241527779
23604,CoGeO3,-1.792285130500001
23605,Ti3NiS6,-1.494519708875
23606,Ag5Te2Br,-0.31725511010416696
23607,LiSmSn,-0.6635572915277775
23608,TlMo2(PO4)3,-2.386718873657407
23609,Dy2Ge2O7,-3.0550026804545443
23610,KAsO2,-1.8932941094999993
23611,ScH13Cl2O7,-1.5431104328260867
23612,K5SnAs3,-0.4361622577777777
23613,Sr3GeO,-1.5607797425000007
23614,Sr2InPd2,-0.6670709786666663
23615,MgH16(IO4)2,-1.3088437868518514
23616,LiCeF5,-3.8152718029761905
23617,K2Mn3S4,-0.9994487508103455
23618,Zn3Au,-0.17320885250000018
23619,H5CNO3,-1.1579084599999987
23620,Y3In2(GaO4)3,-2.8750688435000007
23621,AlF3,-3.870369753125
23622,K2Sn(AuS2)2,-0.9050471492777779
23623,Tb4InRh,-0.54111754875
23624,NpB2,-0.4079675790277785
23625,Yb2PdRh,-0.7417226124999994
23626,U2CuP2(H4O5)4,-1.9740407477235782
23627,K2Li3FeO4,-1.88170439385
23628,Cs(SbS2)2,-0.8063904579187197
23629,NaPmTl2,-0.2640194026795979
23630,Ba3Bi2(PO4)4,-2.8911689409333325
23631,Rh2Se3,-0.6893389564062495
23632,LaPt5,-0.7522136558333324
23633,TmGeAu,-0.8015139772222225
23634,HoSiRu2C,-0.6004999069999997
23635,Ba6Tm2Ga4O15,-3.0148045953086426
23636,SrLa2WO7,-3.3037674462878788
23637,Zr4Co7Ge6,-0.6030461308823526
23638,LiZn2Au,-0.37055097083333344
23639,Nb3RhSe6,-1.060885250406249
23640,NaCaMgFe(SiO3)4,-3.0395746442025855
23641,Ba2HoTaO6,-3.5927820400000003
23642,K2SbH5O6,-1.6399001764999999
23643,Li6MoN4,-0.8597730768181816
23644,Sr2Sn,-0.6192838894444442
23645,Cu2O3,-0.8331290082500005
23646,Ba2PCl,-1.8178099608333333
23647,Ca2Sn3O8,-2.5545313888461534
23648,NdSiPd,-0.9027453638888885
23649,AgHgSI,-0.4307624261979166
23650,ZrH3NF4,-2.4674702113888896
23651,KGaS2,-1.2984356232499996
23652,Na2Gd2MgSi4(O6F)2,-3.394572376874063
23653,Dy3Si3O10F,-3.7205101525
23654,Cs3BiF6,-2.88571690587931
23655,Pr12(OsC3)5,-0.21667673015624977
23656,Eu3InO,-1.4521855140000013
23657,NaGdSiO4,-3.2904642141502456
23658,LaP2,-1.1066060293055553
23659,BaMo2(P2O7)2,-2.6943121687301588
23660,LuAgGe,-0.6107437427777767
23661,AuSeCl7,-0.8000587210937502
23662,Si2Ge3P6O25,-2.613311015555556
23663,Ca3Ge2Au9,-0.5224197571428567
23664,BaCaEuWO6,-3.0050860745000008
23665,Na6MnTe4,-0.9526097474764886
23666,DyTlS2,-1.7374200598958334
23667,TbCuSb2,-0.7163079312500003
23668,CsAlH4(OF2)2,-2.465140585244253
23669,KEuPO4,-3.008135471261905
23670,SmSbTe,-1.363297083333333
23671,CeTaO4,-3.6649705587499994
23672,CuH2CN2Cl,-0.4699645723809528
23673,Na2SrAl4(SiO4)4,-3.296716213510004
23674,BaAg2GeSe4,-0.9511978359635411
23675,RbPr(SeO4)2,-2.0059762124739584
23676,Cs2LiYI6,-1.6722492875862074
23677,Rb2AlTlF6,-3.1931826543333335
23678,TiSnPd,-0.586527979444444
23679,GdRu2,-0.2566533299999989
23680,Ho(ClO4)3,-0.9844738703124998
23681,Dy2Mn2O7,-2.8955232914420064
23682,NaAs3(PbO3)4,-1.7971293748275863
23683,KSmO2,-3.0117127344999997
23684,CsMg(PO3)3,-2.8097004330069795
23685,NdInPt4,-0.7891581216666665
23686,Mn2PO4F,-2.6531528752119247
23687,NpO2,-3.601204179583334
23688,Cu3P4H8N2(O3F)4,-1.802507986616161
23689,LiFeAsO4,-1.925192781547619
23690,Eu2TiO4,-3.4533441176190496
23691,NdNi(BO2)5,-2.855774986813725
23692,Cs6K3GaSb4,-0.47608066457758624
23693,K3Np(HO3)2,-2.3261900137708333
23694,SrCd2,-0.3368861055555558
23695,Na3Nb34Al2O64,-2.8326449698024767
23696,Sr2CrO4,-2.7892583977976195
23697,RbCa(H2N)3,-0.6026129843181817
23698,Er2As7Rh12,-0.6834902035714284
23699,ErSi2Rh3,-1.0593583850000006
23700,LaMg2Cu9,-0.16678023708333356
23701,Ba3MgRu2O9,-2.4313402620000004
23702,S3(NO7)2,-1.2554641233881572
23703,Er2SbO2,-3.051055224000001
23704,Cs2KInCl6,-2.043847582886207
23705,Ca2FeH6,-0.6525569944444448
23706,Ho11(In3Si2)2,-0.5801783135714279
23707,Nd3In5,-0.5106269818750002
23708,SrLa6OsI12,-1.6317601480833333
23709,CaWN3,-0.8557554670000002
23710,Ho2Al,-0.29161060083333307
23711,NdH2,-0.7411560433333335
23712,Na2Zn2Si2O7,-2.57927730908488
23713,YAg2,-0.32714217666666673
23714,K4Ge(PS3)4,-0.9470286939444443
23715,La(PPd)2,-1.0059653583333337
23716,CsSbOF4,-2.7546833789901486
23717,CsB9O14,-2.8297737474137925
23718,Yb(NiP)2,-0.9669465713333331
23719,RbMnH4Cl3O2,-1.582216572766458
23720,YOF,-4.229090799722223
23721,K5HfIn(MoO4)6,-2.274872601216216
23722,TbTe3,-1.2572225800000005
23723,Rb2FeF4,-2.8290467121428575
23724,Ba2YOsO6,-2.8669686821666667
23725,BaIn2Ir,-0.36840933374999985
23726,K2LiNb6(PO8)3,-2.9292417972037046
23727,Bi2Pt,-0.2473293666666668
23728,Yb2TeO6,-2.32453866925926
23729,Er14Ag51,-0.23530058476923071
23730,Y2GaNi2,-0.5580703081666669
23731,Lu2AgHg,-0.41512116291666645
23732,NaNd(MoO4)2,-2.509530793045979
23733,GdErZn2,-0.8412294575000008
23734,ScNi2,-0.5209218083333328
23735,KHo2Cl7,-2.6653462013
23736,LiVPO5,-2.666566670520833
23737,Ni5As2,-0.240422601190476
23738,NaTm(Pd3O4)2,-1.44892865770115
23739,Ba2PrNb(CuO4)2,-2.68589792
23740,Ba(MgAs)2,-0.9450568880000002
23741,Ba2ZnGe2S6O,-1.5777312832291663
23742,Mn2NbP12,-0.3801347820574714
23743,PmZn3,-0.3211956368750002
23744,CsPrCdTe3,-1.3140679704885052
23745,InI,-0.6561656649999996
23746,K9Gd3Si12(O16F)2,-3.192359130551725
23747,Cs4P2PdSe8,-0.9939697141427207
23748,Dy3(AlNi3)2,-0.5660982254545452
23749,Sb2WO6,-1.9611936338888896
23750,Y2Zn17,-0.24928883754385972
23751,Rb4Nb2Si8O23,-3.09601360472973
23752,Tb3(AlNi3)2,-0.5529216440909088
23753,K2Ce(CuS2)2,-1.4125303459444452
23754,Sr3CoRuO6,-2.381721360454546
23755,ReHg2O5,-1.506233369687501
23756,Dy5CoBi2,-0.5507125046875005
23757,U3Ni3Bi4,-0.13705344849999931
23758,MgScAg2,-0.28859727208333297
23759,KPaO3,-3.5626183736000003
23760,TmLuCu2,-0.2969388991666664
23761,K2PH3SeO8,-1.8763339371118055
23762,Ca2Nb2O7,-3.297524677045455
23763,RbZnH2Se2ClO6,-1.5036397547836542
23764,Na2ZrGe2O7,-2.5717494869252864
23765,RbNd(PO3)4,-2.923565187175927
23766,Gd2CdPd2,-0.7827485050000007
23767,W(SO4)2,-1.8265809589772724
23768,Sr(InSe2)2,-1.2635454856845232
23769,In6Ga2PtO8,-1.7777523973529412
23770,ErPRu2C,-0.6714982826666656
23771,PrZnPd,-0.6793271116666667
23772,Cs2MgH8(CO5)2,-1.7551622975374812
23773,CaZrF6,-4.146771990625
23774,Tb3(GaNi3)2,-0.5448664231818175
23775,CdH2SO5,-1.6569552867361108
23776,Cs3BiO3,-1.6135073416133008
23777,NdMg149,-0.024250196533333223
23778,EuAgP,-0.7542972799999994
23779,Cs3CaFe(P2O7)2,-2.7377680530272355
23780,HoGePd,-0.9913611583333335
23781,Ba10Nd4Y(MoO6)5,-3.004790254733334
23782,Mn5V2(HO3)4,-1.984166500419791
23783,RbNbCl6,-1.9122737621875001
23784,Th(BOs)2,-0.5184764796666655
23785,BiF3,-2.7786668043750002
23786,ThS2,-2.319876987916667
23787,V2ZnO4,-2.3410382909523797
23788,BaZrN2,-1.4247567975000006
23789,KP2H4PtO9,-1.9401750099803925
23790,LaSnPt,-1.0784063811111113
23791,KBiS2,-1.0432610373125
23792,Li2CrF6,-2.947815000740741
23793,Ho2MgNi2,-0.39124646299999954
23794,CaP2H2O7,-2.582749542222222
23795,CaIn2Pd,-0.6137339812500002
23796,ZrAl2,-0.5378202358333333
23797,Zr5(In2Rh)2,-0.5292030750000006
23798,Sc2Mn2O7,-2.805036003260187
23799,RbTa(GeO3)3,-2.486464781964286
23800,LiPr6B3O14,-3.471153022847222
23801,V2PbO6,-2.2122341561111125
23802,UTe2PbO8,-2.256446326458333
23803,K2GeAs2,-0.39907709520000056
23804,Na3BS3,-1.1638671697424054
23805,Pr3PtBr3,-1.7165429289285703
23806,CeBi2Au,-0.5618432100000001
23807,Ba2MnSi2ClO7,-3.0756453011870017
23808,Lu(FeSi)2,-0.6435139379999996
23809,Hf3Cd3AgF20,-3.318092205061729
23810,Mg2PtRh,-0.7033575074999998
23811,EuGaPt,-0.9037544316666661
23812,Ti4Co7Ge6,-0.5109714957843139
23813,Mg10Ge3(H2O9)2,-2.5756233734285723
23814,Sr2TmTaO6,-3.634589795000001
23815,Ba(MnP)2,-0.7619516825057474
23816,VP(H2O3)2,-1.9946882319444448
23817,Tm5(Ge5Ir2)2,-0.7545177441228069
23818,SmTaO4,-3.701276814166667
23819,Ce2H16S3O20,-1.8596027097408547
23820,UTeO,-2.3996008483333333
23821,CsTmZnSe3,-1.6420037594381587
23822,SmAl3Cu,-0.46561602499999993
23823,K2FeF5,-2.9106630713750006
23824,Th2PNO,-2.5293999246666674
23825,La10Os2I15,-1.4986555231481484
23826,Re3As7,-0.07743351649999966
23827,Eu(CoSi)2,-0.6325029349999994
23828,CsEr(TaBr3)6,-1.495418516266579
23829,U2(Si2Ni)3,-0.4708844909090921
23830,NaSb,-0.418877486400862
23831,K3B6BrO10,-2.738651173075
23832,P2Se5,-0.3468222701264878
23833,CsNdO2,-2.849707963232758
23834,MnSnRh2,-0.43506260573275934
23835,Dy2Ge6Pd,-0.5750270255555555
23836,Nd2Be2SiO7,-3.523768860416666
23837,K(Cu2Sb)2,-0.19085339757142858
23838,Ba3Sb2S7,-1.5166456084895834
23839,CaLaMnNbO6,-3.207312040543105
23840,Ac2ZnAu,-0.5047573737500004
23841,YbGeIr,-0.7880005741666665
23842,Cs3NdCr3O12,-2.2432161098049006
23843,ZnB4O7,-2.687527499618055
23844,Na3Sr3GaP4,-0.779005731408046
23845,Na2B3HO6,-2.5336514356752873
23846,Pd16S7,-0.3995336931249999
23847,Li5(Cu2P3)2,-0.4468527224444448
23848,Ba2Er(CuO2)4,-2.063685448
23849,CrH14N4Cl3O,-0.8390442252173914
23850,Yb2InAu2,-0.8232849949999995
23851,Li2Lu5B3O13,-3.528650978876813
23852,Y3Ni7B2,-0.4862535940277783
23853,Pr(Ge2Rh3)2,-0.7362046322727284
23854,BaMn2V2O8,-2.5498118048740057
23855,U8TiS17,-1.7675424529407047
23856,RbFeO2,-1.772252306875
23857,Yb2AgPd,-0.6510163291666666
23858,ZnGa2(TeO3)4,-1.7557415810526316
23859,Sm3TlC,-0.3407369336666662
23860,P3N5,-0.5233771874999995
23861,Sc3Si3Ni2,-0.8520428675000007
23862,Bi3Sb,-0.05718329749999995
23863,SrHBrO,-2.322534748541667
23864,BeTlPO4,-2.600171854523809
23865,ZrTc2W,-0.2598825824999995
23866,Cd3BPO7,-2.1876020956249995
23867,LaNi2GeP,-0.8532534086666665
23868,Fe2TeO6,-1.638986081111111
23869,Ac2CuIr,-0.3196635362499993
23870,K3Cu11Te16,-0.4507749272999997
23871,Na2CuP2O7,-2.3866538320641766
23872,ErTlPd,-0.651851734444445
23873,KY(PSe3)2,-1.0744806592895828
23874,USeO,-2.6651665891145826
23875,Ca14MnSb11,-1.054281845208886
23876,Zn3Pt,-0.3996057350000002
23877,BiBrO,-1.5554704258333334
23878,Tl3PSe4,-0.5770369909635416
23879,Al7CoCu2,-0.27829899850000006
23880,YbHfIr2,-0.7429713449999991
23881,CaRhF6,-2.7454833206250004
23882,Gd(PRu)2,-1.034506847333334
23883,Sr(SbO3)2,-2.386593908518518
23884,K7Th6F31,-4.093184336784091
23885,RbGaSnSe4,-0.990595327053572
23886,Ca19Mg2(PO4)14,-3.3080793860073254
23887,Cs(MoSe)3,-0.9283073092803258
23888,CsIOF4,-2.1703147243472904
23889,RbFe2F6,-2.760432872777778
23890,Ba2CeTaO6,-3.4853965715
23891,ThB4Mo,-0.576446430277778
23892,UP2,-0.8002899505555554
23893,Sr2GaGeN,-0.7325577961666667
23894,CrBPbO4,-2.341418702380952
23895,SrO2,-2.2054394455555553
23896,LiCrS2,-1.2531423598958336
23897,K3(NiO2)2,-1.2916989859999992
23898,SrMgV2O7,-2.805440098106061
23899,MgRu2W,-0.15466367750000032
23900,Nd2ZrS5,-2.2021573919531257
23901,Ce3PI3,-1.4649334247619048
23902,Li8Mn13Fe3O32,-2.0267767964244663
23903,ZrGeSb,-0.6564961349999999
23904,Cu13I15,-0.33722859089285706
23905,K2H3IrNCl5,-1.2990141075833332
23906,Gd4Ga16Co3,-0.5126381758695643
23907,Ca3Pd,-0.4432008875000002
23908,SiNi,-0.46419853874999983
23909,Li2GePd,-0.5535814629166667
23910,Mn3W3C,-0.07583551982758609
23911,HfGe2,-0.47152715
23912,Eu(FeP3)4,-0.5608445732352938
23913,KSiBiS4,-1.0775481918571426
23914,Er2O3,-4.057094096999999
23915,TbCoGe2,-0.6404481637500004
23916,Os,0.0
23917,InPS4,-0.6955120493055554
23918,YZn,-0.36674400333333335
23919,K2ScP2Se7,-1.083140068047743
23920,TiNbB2,-0.8101667204166674
23921,HoP2(HO2)5,-2.233727521481482
23922,GdHSe,-1.656648059114583
23923,Sr(CuGe)2,-0.3668175953333332
23924,K2BeCl4,-2.125890617285714
23925,Sc6Si7Ni16,-0.744870167931034
23926,Ho(ZnP)3,-0.6041103921428572
23927,La17Al4(Si3N11)3,-1.5607343682539676
23928,La(Al10Cr)2,-0.1565561693478261
23929,LaPt,-1.1825530825000001
23930,TaRh2,-0.5710637091666667
23931,Rb(CoP)2,-0.575991100833334
23932,Li5B7S13,-1.0067140820583331
23933,LaZnCuP2,-0.7839515283333334
23934,SiI3,-0.6567460950000004
23935,TbGa2Pd,-0.8002893949999992
23936,Na4V2C4SO16,-2.102865353493773
23937,ThZrF8,-4.2618261365
23938,K2CdP2O7,-2.5271282785555553
23939,MgSe2,-1.1433162682291667
23940,TmMgRh2,-0.7759855116666667
23941,MnPSe3,-0.5407143406591238
23942,Tb(BC)2,-0.44783308766666463
23943,Cs3Ag2Sb3S8,-0.8104808276329019
23944,Ho2Te5O13,-2.199415581500001
23945,CsK2Fe3P4ClO14,-2.4657009974905746
23946,Ca2ScTaO6,-3.6293345705
23947,DyZn,-0.3466882450000002
23948,CaAcTl2,-0.4153703572916667
23949,Ag3Sb4F24,-2.3957980717741933
23950,K2Se3,-1.08227908160625
23951,Lu4C7,-0.3257143722727278
23952,BiPd,-0.32083158249999943
23953,Sr4(PPd)5,-0.9468069463095234
23954,Sm3(AlNi3)2,-0.4953437109090906
23955,NdGa6,-0.3435224228571429
23956,La2CuO4,-3.0420221528571423
23957,Rb2Pd(S4O13)2,-1.7369517327027026
23958,Pd4Se,-0.2547171774687499
23959,Y3ErTi4(SiO9)2,-3.686079570654763
23960,SrCe3V4O16,-3.1042737567361107
23961,K2Hg3(GeSe4)2,-0.7568087746499993
23962,Co2HgO4,-1.0701480224999997
23963,ErMoO4F,-3.001817834642857
23964,GaSb3Pb4O13,-1.8502290034523812
23965,La2Zn5Pb,-0.4091140956250001
23966,KZnAs3F18,-2.5674013716521737
23967,Bi2AuO5,-1.2483981093750005
23968,CaLaMgTaO6,-3.539231831000001
23969,ZrSiTe,-0.9165615566666668
23970,HfTe7SeCl6,-0.9921383558229162
23971,TiTl5F9,-2.6336294265
23972,LaGeBO5,-3.003877321354167
23973,Ti2NiS4,-1.429827422738095
23974,Sc2Re3Si4,-0.6085559022222213
23975,Pr2Fe12P7,-0.6290914411111119
23976,Y3CuGeS7,-1.7232493726562506
23977,Tl2TeMo2(PO7)2,-2.065657053492063
23978,K5NaNi5(P2O7)4,-2.42952490017486
23979,H2,0.0
23980,Rb2Hg2PdBr8,-1.1909588034615384
23981,Be15(Nb3Cu4)2,-0.19238978051724145
23982,Mo2As3,-0.2715232350000008
23983,TiCo2Sn,-0.38394955708333356
23984,Ce2CoRu3,-0.27861326499999944
23985,Ti21Mn25,-0.2549043878973024
23986,HfP2O7,-3.181107898666667
23987,Dy(PPt4)2,-0.6350285296969699
23988,ThCuPO,-2.171502274583334
23989,CsPr2Cl7,-2.6922101626681036
23990,NdSb2,-0.9260972616666668
23991,Ho5BiPd2,-0.6993626593749998
23992,Ho3(Al3Ru)4,-0.663528777631579
23993,K2Na2Sm4Ta2O13,-3.290781104308846
23994,BaMn8O16,-2.038069756937931
23995,GaCu3,-0.09468610437500002
23996,BaMnS2,-1.586018653545259
23997,NbOF3,-3.2942464515000003
23998,BaNd2O4,-3.5134188403571427
23999,LaAlRh,-0.8327823137500007
24000,NaSrCrF6,-3.46457801146871
24001,CeSi2Mo2C,-0.4859722558333317
24002,Nb2AsC,-0.6193321775000005
24003,Cs2Sn(GeO3)3,-2.1657504797241387
24004,CeGa2Cu3,-0.3415508933333336
24005,ZnFe2As2(HO5)2,-1.6482554594117649
24006,Mn7GeO12,-2.0521910770258613
24007,LiBPt3,-0.5129408098333329
24008,Hf2(NiP)3,-0.9988872340624999
24009,CsCdBO3,-2.20931432118295
24010,Li2GaCu3,-0.16691541069444446
24011,Na2Ca4YZrSi4(O5F)3,-3.5151220927423377
24012,HgSeO3,-1.04897687946875
24013,Ba4NbFeO8,-2.9044551823214286
24014,Cs3Ga2F9,-3.0582311211637925
24015,Sr5(SiN3)2,-1.1640795325641022
24016,ZrSe2,-1.6435612348958326
24017,Al2(SO4)3,-2.335124345257353
24018,Pr3InN,-0.8987026379999996
24019,YbCdPd2,-0.6920361549999998
24020,YCr4(CuO4)3,-2.032965362833334
24021,ScPRu,-1.190010424444444
24022,Rb2CuH12(SeO7)2,-1.3630295004737902
24023,Sr3(AlGe)2,-0.4956995828571432
24024,RbEr2Cl7,-2.676011318
24025,Re24Mo5,-0.013828065517241707
24026,CeAl3Au,-0.5795916409999997
24027,Er2TlAg,-0.3404359124999998
24028,Li3CeBi2,-0.6544588658333333
24029,NdCu3Se2ClO8,-1.5973534839791663
24030,NaLa2IrO6,-2.7035084741551723
24031,LuZnPd2,-0.8012235899999993
24032,Ba3(AlP2)2,-0.9646229175925924
24033,Sr28In11,-0.28694820683760686
24034,Hf(TlSe)4,-0.9374812956342592
24035,Ba2TlCd,-0.3790447733333333
24036,K2RbTmV2O8,-2.7485827057261907
24037,Lu2CdAg,-0.31266543666666635
24038,Sb2POF13,-2.68674478872549
24039,Ca2VN3,-1.3662283433333329
24040,Li4Re6S11,-1.0252659937003965
24041,Na4Ga3Si3ClO12,-2.685689796465518
24042,Cs2Pt3S4,-0.9628555087068962
24043,Zn2Pd,-0.43753690625000036
24044,NaFePO4,-2.4143020646264364
24045,Rb2WCl6,-1.7850154183333333
24046,Cs2RbRuF6,-2.6098370883362065
24047,NaMn2P2O9,-2.3785404970771773
24048,K6Si2S6O,-1.591309423783333
24049,LuTiGe,-0.6979762161111106
24050,K2NaZn(BO2)5,-2.648984984388687
24051,U2TeN2,-1.5722746959999996
24052,La(AsRu)2,-0.7799344109999993
24053,NdSbO4,-2.799145841666667
24054,Cs2Al(NO3)5,-1.3452656614142935
24055,La3Sb4Au3,-1.0359919644999998
24056,Lu2ZnAu,-0.6364799575000002
24057,Na4Mg(SiSe3)2,-1.1735592784822613
24058,Yb2Ge2Ir,-0.7676536329999998
24059,Tb2Fe12P7,-0.7018289801587311
24060,AgS2(O3F)2,-1.6751695504924244
24061,HoRhO3,-2.5904940709999997
24062,U2BiN2,-1.2638311640000013
24063,Cs2AsH5O6,-1.6381591704187193
24064,ThAsS,-1.710205454375
24065,NaAsS2,-0.8491714213254316
24066,LuPaRu2,-0.4920430074999995
24067,YNiGe3,-0.5791384903333338
24068,Nd(SiPt)2,-1.0769631599999996
24069,ZrAl5Ni2,-0.5905424937500001
24070,CdCu2SiTe4,-0.38641935874999955
24071,CeOs2,-0.24772315166666678
24072,K2Hg3Se4,-0.787623949486111
24073,Li5GeN3,-0.6130355969907405
24074,KVCl3,-1.8435130666
24075,Nd2Si5Rh3,-0.9612324674999997
24076,Mg149Cd,-0.029084975266666598
24077,SrSe,-2.2983146895052085
24078,Na2Ti2Se9,-1.1262641815087586
24079,Cu3Au,-0.036353375000000465
24080,YbSe,-2.3217697761718745
24081,SrCrHO2,-2.0912902403333335
24082,Sr3(B3Rh4)2,-0.5531475138235289
24083,Y5Tl3,-0.35239096604166775
24084,Rb2Si2O5,-2.8894722486111117
24085,PrHf2F11,-4.252644495178571
24086,Pr3OsO7,-3.06543741
24087,K2NaLuCl6,-2.433181299255172
24088,Li4MnGe2S7,-1.1152995927242404
24089,Pr2C3,-0.14165444100000002
24090,Sr2Bi2O5,-2.353921510092593
24091,Tc3Se4I,-0.8222635586718754
24092,CuI4,-0.16940907000000002
24093,Pu2Zn17,-0.15815605000000008
24094,Pr(Al4Co)2,-0.4654093027272724
24095,RbFeS2,-1.0088308034375002
24096,LaAu,-0.8209628025000004
24097,KCr3S5,-1.1174965615138879
24098,Sm2ZnSb4,-0.8162044971428573
24099,CsTmS2,-2.064203881461925
24100,TeAuCl7,-0.940193483888889
24101,Cs3PO4,-2.470967297765805
24102,NdSi3Ir,-0.8123154659999997
24103,Pu(SeO3)2,-1.994880836076389
24104,Ti10CrSb5,-0.5019634714583328
24105,YbBi2,-0.5385375300000005
24106,Ca5Sb3,-1.0579432456249998