,formula_pretty,formation_energy_per_atom
14831,Cd4P2Cl3,-0.8116260371296298
14832,DyGeRu,-0.7211966608333332
14833,LiHg,-0.37380411916666656
14834,Ta6Co16Si7,-0.5635186110344829
14835,CeGa3Pd2,-0.7268092229166658
14836,CdP2(H4O5)2,-1.7984061072222224
14837,Pr2NiPtO6,-2.4695707819999995
14838,ZnGeN2,-0.3733232431250002
14839,EuNi5As3,-0.5385047588888894
14840,Zr3Co,-0.2107123662500019
14841,Li2SnTeO6,-2.0039596056666666
14842,CsInCl3,-1.8171912485862065
14843,RbLiMn(BH4)4,-0.3322216548013493
14844,LuH3,-0.7269115529166665
14845,SmMoClO4,-2.681251022857143
14846,MnSi(AgSe2)2,-0.5501996338299202
14847,NaBOF2,-3.050423057810344
14848,RbAuS,-0.9279128768750002
14849,PrCuGe,-0.6116637633333332
14850,Lu2Mo2C3,-0.36475603285714236
14851,SrTa2O6,-3.4899465651851846
14852,TlBi(MoO4)2,-1.8479783606944444
14853,Rb2U(PdSe2)3,-1.1032231678385418
14854,GdAu,-0.8288037499999987
14855,K2Hg3S4,-0.7658414609444447
14856,Ba2CaV2CoF14,-3.5429744869999995
14857,PaIr3,-0.8650589474999997
14858,Ce11(Ni2Ge3)2,-0.6030332645238093
14859,ZnH3CNO3,-1.264951193333333
14860,ZrSnRh,-0.7713286744444443
14861,Tb2NiB10,-0.5188252135897434
14862,NbTc2Sn,-0.1644178712500004
14863,La4MgIr,-0.38690627041666775
14864,Rb2NaMnO4,-1.817968777435345
14865,NaSmO2,-3.050105472887931
14866,Sr2LiReN4,-1.004647744583333
14867,PmMgHg2,-0.4730334143749999
14868,Yb3Si11Pt23,-0.8699667394594597
14869,MgCl2,-2.2654612233333338
14870,Ho3Ir,-0.5998279368750001
14871,KLi2BO3,-2.461557284119048
14872,Ho5Pb3,-0.526444996875
14873,NdBiO4,-2.4087157649999997
14874,Hf9Re4Si,-0.37586183750000096
14875,Y3(FeRu2)2,-0.2520093616666672
14876,Eu2Ir2O7,-2.2132014309090895
14877,RbGdTe4,-1.2299133187500004
14878,V18Ag7O48,-2.049034747077626
14879,Y4Ga12Fe,-0.5368537121568626
14880,TaNiB,-0.616673581388889
14881,Sr(Cd2Pt)2,-0.4546515338095237
14882,VRu3,-0.11769533624999973
14883,GePb(S2O7)3,-1.7501830663362066
14884,Nd3Zn11,-0.33273450500000024
14885,Th(PS3)2,-1.1869029272685188
14886,TePb2O5,-1.5675995412500008
14887,VGaFe2,-0.2984274568750003
14888,CsFeP2O7,-2.526560621327063
14889,Be3P2,-0.2322300610833338
14890,Gd4C2Cl3,-1.529285626666668
14891,K2MgH12(SeO7)2,-1.5280673000221772
14892,Ho(Al5Fe)2,-0.35405731961538467
14893,GdFeB4,-0.5804013340277775
14894,Sc2TeO6,-2.9257418840740748
14895,La9B3C6I5,-0.8696837094565215
14896,Y2WO6,-3.2872805828703715
14897,Tl2TeCl6,-1.2244868051851856
14898,BaZn2(PO4)2,-2.7295301301282056
14899,Er2Mo2C3,-0.3778866685714277
14900,SmSbRh,-1.060131104166666
14901,Sb3Ir,-0.4892260281250005
14902,YB2Ir3,-0.6879731124999999
14903,RbCaI3,-1.8151626564999996
14904,TbCuSe2,-1.4539987086718749
14905,DyPPd,-1.2680246861111115
14906,Th(GePt)2,-0.9204529450000003
14907,RbTe6,-0.6236141525000001
14908,NaMgFe(SO4)3,-2.1178884158848184
14909,Nd4Mg7Ge6,-0.5541852682352939
14910,TlB5O8,-2.6798249814583324
14911,CsUTe3Au,-0.9462939979885056
14912,Gd3MoO7,-3.3452898925000003
14913,GdN,-1.7588588524999995
14914,Na2UCl6,-2.162872510344828
14915,ZrGaNi,-0.6468923769444446
14916,VCoP,-0.8356356536111113
14917,Sm11Sn10,-0.760871893095238
14918,Ta2CrOs,-0.3084014937500008
14919,YbIn2,-0.45924673
14920,CaSmZn2,-0.3060226637500003
14921,Li2InAg,-0.29218607333333324
14922,SmCo3P2,-0.891593174166667
14923,LaNiBN,-1.0440426372916667
14924,MgAgSb,-0.292030138888889
14925,Sr2TaMnO6,-3.1054333101264375
14926,La(GeRh)2,-0.905555073
14927,Dy3InC,-0.4942640980000007
14928,Cs2HfCl6,-2.433925316206896
14929,CsAuO,-1.0655390076436777
14930,Na2Te4MoO12,-1.7420901775317608
14931,LiSi2BO6,-3.0654751665000006
14932,HoIn5Rh,-0.39257286285714293
14933,CsSiSbO5,-2.52022941661638
14934,LaFeGe3,-0.5303419859999998
14935,Na(MoSe)3,-0.8311572755118531
14936,Al7FeCu2,-0.25959705699999985
14937,UPSe,-1.1318571852256945
14938,BaCr(Si2O5)2,-3.168524416093751
14939,Cs2K2B10O17,-2.79808772495254
14940,Y2SiCO7,-3.2920995680303022
14941,Zr2Mn4P3,-0.8702429551915714
14942,Pr14Au51,-0.6312315363076917
14943,NaSi2Pd3,-0.6211115135919538
14944,YbAlPd,-0.8109263908333334
14945,Ba2YUO6,-3.6471274256666666
14946,CuRhO2,-0.9612006150000001
14947,CaZnSi,-0.42775888666666617
14948,ZrTlF5,-3.491486557619049
14949,K2V2CoO7,-2.2698016909166654
14950,HoAlB4,-0.49826174361110986
14951,Pr2Ni3P4,-0.986518014814815
14952,NaSc(GeO3)2,-2.638848230655172
14953,NaEr(SO4)2,-2.5369902481501434
14954,Sc39N34,-1.9543646763698637
14955,Pr(IO3)3,-1.4767363659615393
14956,La3U2O10,-3.9118574056666677
14957,AlV3,-0.13424391499999988
14958,KAg2,-0.014960989611110994
14959,Na2ZnSi3O8,-2.8348942720073893
14960,CaZn2,-0.29891643333333323
14961,BaTeS3,-1.190104142375
14962,SrClF,-3.5924706847222225
14963,LiMnVF6,-3.1422682099553008
14964,AlPO4,-3.120800598888889
14965,Ba2CrMoO6,-2.6602086259999993
14966,K3MoF6,-2.9354724304
14967,K2TeBr6,-1.397688576222222
14968,MgNiBi,-0.20030982333333291
14969,NaLiNiPO4F,-2.5084158031353763
14970,TeBrO3F5,-1.5627439437500008
14971,As2Rh,-0.5018060725000003
14972,Co2CuS4,-0.7070782010714284
14973,PaNi2Sn,-0.39914705625000035
14974,Nd3(GeRu)2,-0.6174915892857139
14975,BaGeF6,-3.4034959775
14976,LiAg3O2,-0.8100851038888889
14977,Dy12Co5Bi,-0.27777443583333333
14978,Y3(SiRh)2,-0.951401012857143
14979,PbF4,-2.1990198399999996
14980,LuFe2,-0.17506099500000025
14981,BaNb2V2O11,-2.867385079687499
14982,U2Si7Ru12,-0.5945785904761898
14983,Cs2Hg3Se4,-0.810240806137452
14984,SmMgGa,-0.4961402163888889
14985,EuCuP,-0.8800098227777772
14986,Er5Re2C7,-0.4031829799999999
14987,ErAsSe,-1.567138186614584
14988,CaCuAs,-0.811625003333333
14989,Y(AlC)3,-0.2882851830952374
14990,Sr(TbSe2)2,-2.216854166934524
14991,Co2PHO5,-1.926267533703705
14992,LiMgPd2,-0.6244717208333337
14993,DyCrO4,-2.7809529133333335
14994,La4Se3O4,-3.2560374406392047
14995,TbBiPt,-1.0364011399999995
14996,Er2MgNi2,-0.3992473590000003
14997,YbTl3,-0.26198025000000014
14998,FePH12(CBr)4,-0.4472024287878785
14999,CsLa2CuSe4,-1.820685864038254
15000,PrCdIn,-0.42884898833333374
15001,Li7Cu2N3,-0.4179251515277779
15002,Ti3Nb(AlC)2,-0.6624850837500009
15003,KLi6TaO6,-2.491737536642858
15004,MnH2(SO4)2,-1.7862952837831565
15005,Er2CdGe2,-0.6970048399999996
15006,Mn2PdPt,-0.2849570914655173
15007,LaPmIr2,-0.5989841731249994
15008,Cs2(PSe2)3,-0.7670101284022337
15009,MgNi2,-0.2205461637499996
15010,Na2O,-1.4385102293678156
15011,FeP,-0.5984293366666673
15012,Rb3FeF6,-2.90424062875
15013,HgBr2,-0.830773535
15014,Ho2(SeO3)3,-2.3498946626450894
15015,K2YbMoPO8,-2.583634809371794
15016,Ba2DyPaO6,-3.745965455000001
15017,Sc25InIr7,-0.5992579646969697
15018,CsH5N2,-0.4189291184913788
15019,MoN,-0.5471153687499992
15020,ZrCo2,-0.3113923850000013
15021,MnGaCo2,-0.24274669385775915
15022,DyPt3,-1.00745912
15023,CsH7O4,-1.3790381760775858
15024,CaCdGe,-0.4938677727777778
15025,Tb(NO3)3,-1.4614495403846162
15026,BaLaAgSe3,-1.8444802081163196
15027,CsGa(SO4)2,-2.0419468968067522
15028,Sr3AsN,-0.9389526480000001
15029,K2NiH8(CO5)2,-1.5990707330869574
15030,Zr3Al,-0.30230683750000065
15031,Cd(GaCl4)2,-1.5622050977272723
15032,Hf(GaFe)6,-0.28560314884615406
15033,SrPrZnRuO6,-2.4848207361666668
15034,BaNb2Xe5F22,-2.1959695135000006
15035,RbTb3F10,-4.294378989821429
15036,Tb4MgNi,-0.19530569375000026
15037,K2SnBi,-0.35198794150000046
15038,Pm2(WO4)3,-2.732252486764706
15039,SbAs2Cl13,-1.1092099231250003
15040,Ga2Ir,-0.4508729066666667
15041,Ti2MnNi,-0.3383935036494261
15042,Dy5Zr3(Ni4As3)4,-0.8293638372222224
15043,NpTe3,-0.8626447846875003
15044,Ho3AlC,-0.4105123900000002
15045,LuAlPt,-1.1828042066666669
15046,Zn(NO3)2,-0.9991389980555552
15047,TaPbF7,-3.3195593230555556
15048,Si2CN4,-0.8678944499999994
15049,Mg3As2,-0.6261261789999999
15050,SrLaGa3O7,-2.8603753782638885
15051,CrH,-0.057986077499999844
15052,Rb3Na(RuO4)2,-1.7069078092179804
15053,SrCaPb,-0.5826177880555553
15054,EuMgSn,-0.5697441266666665
15055,Ce2S3,-2.328465021875
15056,Zr(Zn10Ni)2,-0.1826998926086958
15057,K2RbLuV2O8,-2.7533111845357143
15058,K2WO4,-2.262348871571429
15059,Pr(AlGa)2,-0.45513578000000054
15060,Y2Ge2Ru,-0.8130288616666661
15061,Ti5TlSe8,-1.3765685377678574
15062,Ca(Ga3Te5)2,-0.7302335494117647
15063,Ba2Bi2Se3O2,-1.8232389696701385
15064,K3AlO3,-2.266189305571429
15065,K3Ga13,-0.15573808524999944
15066,Ba2Ag8S7,-0.7468066026593142
15067,Tl(CuTe)2,-0.32790900066666706
15068,LiNd(PO3)4,-2.9262733856481478
15069,Rb3TiF6,-3.2638307470833334
15070,Ca(BIr)2,-0.6820188736666666
15071,LuGePd,-0.9662455027777779
15072,Gd(Al2Fe)4,-0.4100271830769235
15073,MgUO4,-3.462315411666667
15074,ErCdHg2,-0.3453765900000001
15075,CoH4(ClO)2,-1.237281440555556
15076,Sc7CBr12,-1.8595769377499998
15077,AgBi2F12,-2.0147690251111112
15078,Cs2RbAsBr6,-1.574209512336207
15079,NaPrSe2,-1.9060630140598063
15080,KHSeO4,-1.5070714697812495
15081,K(Nb3S4)2,-1.3998281885333332
15082,K2PuCl6,-2.256896559555555
15083,Hf9Mo4S,-0.32958670736606976
15084,CoSi2,-0.4214179883333327
15085,Sr3Ga3N5,-0.7459035888636375
15086,ZnPd2,-0.46219747416666657
15087,LiEuTl2,-0.318057736250001
15088,BeVFe2,-0.2322811762499999
15089,BIrPd,-0.2834065497222227
15090,Ca(CoO2)4,-1.5584229876923081
15091,Zr2Au,-0.41615239666666665
15092,PrSiNi,-0.6846078166666659
15093,Pb2CCl2O3,-1.7163956409374999
15094,Na2Nb2(P2O7)3,-2.7712474168743046
15095,Nd2Si3Pd,-0.8976388391666662
15096,Nb6SI9,-0.8080340805078121
15097,Cs4SiTe4,-1.0457671290804593
15098,TbBi,-0.870746295
15099,Rb2MoSe4,-1.0999782924107144
15100,Li2CeO3,-2.9994713627777774
15101,RbInCl3,-1.7705303304999993
15102,EuH4S2NO8,-1.7871354144531244
15103,Tm(AlC)3,-0.3258331595238094
15104,Pm2MgRu,-0.09667607249999932
15105,Ba(CoSn4)2,-0.2295288659090912
15106,NaBr,-1.8446649170258618
15107,CeAsO4F,-2.845932905357143
15108,HfNiSn,-0.6307284583333335
15109,Ca14MnBi11,-0.8077970823242703
15110,CoBr2,-0.6761313799999998
15111,Nd3SnN,-1.0221724340000002
15112,LiGaSiO4,-2.78597384702381
15113,KCrF4,-3.1070331492500003
15114,Eu2B4Rh5,-0.6341040278787876
15115,TbNi5,-0.32477880499999995
15116,EuNiGe3,-0.5212707639999998
15117,Nd2NiRuO6,-2.579574967499999
15118,CsMgInF6,-3.256863589214559
15119,TmAl3,-0.41378110166666726
15120,AcHgAu2,-0.6032055493749997
15121,HoH2,-0.8066559233333338
15122,Ba8Ho3(Pt2O9)2,-2.663926902424243
15123,Ti3VSn2(PO4)6,-2.8110310463888886
15124,Mg2SbN3,-0.5574958883333329
15125,Li2MnSnS4,-1.095729737137213
15126,Er2Fe14C,-0.08055562088235287
15127,ErGeBiO5,-2.6584123298437508
15128,Cs2Ge2S5,-1.075181340443008
15129,Si4MoPt3,-0.6399284075000002
15130,CeMgSn,-0.46230596499999993
15131,HfCrSi2,-0.5670539072916666
15132,PuPd3,-0.60078355
15133,KHo(WO4)2,-2.683487077333332
15134,La10S19,-2.2504768003232747
15135,Sb2Pd,-0.4792845200000002
15136,TiGaNi6,-0.40348692635416583
15137,Mn8Nb3Al,-0.1917392519540234
15138,GdCuGe,-0.6516716433333324
15139,SrZnSb2,-0.6604290185416666
15140,PaGaCu2,-0.13612447937500072
15141,NdPPd,-1.241575416111111
15142,Ti4AlN3,-1.6018916760416655
15143,Ho(Ni2P)2,-0.832684537380952
15144,CeAlIr,-0.8948265325000003
15145,Tl3Ag3(AsS3)2,-0.4404495109821432
15146,BaGa2(SiO4)2,-2.979885450961538
15147,Lu3(CuGe)4,-0.5950054781818181
15148,YAlPd2,-0.9431980004166656
15149,HfGaAu,-0.5117798374999994
15150,RbYb2Cl7,-2.25550254875
15151,Nd2SiTeO4,-3.2728355675000005
15152,Sm3Rh2,-0.6699710589999995
15153,NdScSb,-0.9281449449999997
15154,NiP2W,-0.46705909666666656
15155,U3Co4Ge7,-0.34284410892857203
15156,GeS,-0.5016575228124998
15157,Th2P2O9,-3.5577714582051296
15158,CrAgSnS4,-0.7607924220238098
15159,Nb4P2S21,-0.9386295889737645
15160,Ba2YbMoO6,-2.9772304279999995
15161,Y2GeO5,-3.345600802291667
15162,Mo9O26,-1.934031239
15163,MgH18Br2O9,-1.3563873256666668
15164,Sr4TiP4,-1.115772590231482
15165,DyCoSi,-0.7002602633333339
15166,Li2HN,-0.5836286535416666
15167,LiZr2Os,-0.31737337458333315
15168,La2ThTa(ClO2)3,-3.625813009230769
15169,Tb7Co6Sn23,-0.4162915470833326
15170,MgTiF6,-3.8006402422916667
15171,Nd(SiRu)2,-0.8587683159999984
15172,Na4H8PdPt,-0.4046818504433501
15173,SrLi2Ta2O7,-3.2115558644444437
15174,Ba2CuOsO6,-2.1118837835000006
15175,LiCa2Mn2Si5HO15,-2.9992144015075155
15176,ZrNiSb,-0.7011985916666662
15177,Ga4Cu9,-0.10809509923076906
15178,Hf(TlTe)4,-0.6739034270370368
15179,Rb2Ti(Si2O5)3,-3.19364391263889
15180,Zn(IO3)2,-1.0571012105555557
15181,CaNb2(P2O7)3,-2.86269981
15182,La10Se14O,-2.4387671424125
15183,Ba2LaTlCu2O7,-2.195660827948718
15184,Ce(NiGe)2,-0.6673967529999999
15185,Lu2CuAu,-0.5972629724999994
15186,Rb2NaSmF6,-3.5422079811551725
15187,VPbClO3,-2.0494693737499996
15188,K2ErF5,-3.780880384500001
15189,BiB2O4F,-2.6184549284374996
15190,PrScGe,-0.706981061666666
15191,Sc5(In2Rh)2,-0.6693582568181807
15192,CeSb3,-0.6980278412500001
15193,Mg2AlB2Ir5,-0.6138062908333339
15194,K2CdSiO4,-2.3561446287187495
15195,InAsPd5,-0.4935875178571426
15196,NbGaRu2,-0.4913309693749994
15197,K5Nb4O12F,-2.8743601778409085
15198,RhI3,-0.5667571437500003
15199,Ni3Sn2,-0.26081920549999965
15200,RbMo3Br7,-1.2269901843181814
15201,SrAcIn2,-0.41250993229166655
15202,CeIn2Ru,-0.43231406625
15203,NaAuS,-0.8399428478089082
15204,AlBrO,-2.5831390366666667
15205,CoN,-0.07377531500000067
15206,ScInNi4,-0.40869994916666624
15207,LuOs2,-0.3891757975000007
15208,Nd2Ga12Ni,-0.3956814780000002
15209,LiRu2W,-0.061246613333333144
15210,Cs2PtBr6,-1.41246394454023
15211,Ru4Pb4O13,-1.5170180697619051
15212,EuTl2Pd,-0.43731954166666664
15213,PmB3,-0.10153382374999964
15214,SrPt2,-0.8524458972222213
15215,CsReS2,-1.050014738128592
15216,K2Sb4O11,-1.9746447144705879
15217,Ba2PrPtO6,-2.5612681975
15218,NaP4N7,-0.6689503099904215
15219,Na3Mg(BO2)5,-2.7557073122625537
15220,Ge5Ir4,-0.3511390216666668
15221,ZrI3,-1.2469109850000004
15222,Ba3V4(PO4)6,-2.9288635787837842
15223,HoBi,-0.8271502350000004
15224,Cs8In2O7,-1.5506267163793102
15225,KSeO2F,-1.93889611256875
15226,Sm3Si2S8Br,-1.7934701783928568
15227,K2AgBiCl6,-1.6273111922666665
15228,V3Fe,-0.1711400762499995
15229,SmZn3,-0.3575561287500002
15230,CsInF3,-2.7587021770862066
15231,LuB2Ir3,-0.689379236388889
15232,Na4Ge2Se5,-1.0216692534477863
15233,PaAgAu2,-0.28927525416666633
15234,Ce3Sn,-0.41222662499999974
15235,LaCdAu2,-0.6687832262499995
15236,NbTlV2O8,-2.430995582777778
15237,Ba2HfS4,-2.2084400275
15238,Na3CoO3,-1.5743992056650242
15239,Lu2C,-0.373083106666666
15240,EuHg,-0.5601332350000003
15241,Rb2U(PtSe2)3,-1.085950125338541
15242,ScPaRu2,-0.5303785612500018
15243,K2CeCl5,-2.5259728226249996
15244,Nd7Se4Cl3O17,-2.8186275154637093
15245,BaNd2PdO5,-2.97379664888889
15246,DyB2Os,-0.5737596720833338
15247,Tb3Al5O12,-3.690860232125
15248,Ca43Al16Pb13,-0.4190061213888888
15249,HoTlS2,-1.7374400723958336
15250,ErSeClO3,-2.4952205137239587
15251,Ta6TeSe2,-0.5244368377430564
15252,La5In3Br,-0.7295363997222226
15253,Mo3Pd2N,-0.27394195208333133
15254,AuXe2F17,-0.9205133393749996
15255,Pu31Pt20,-0.620124110490197
15256,Lu6MnSb2,-0.5776161608812258
15257,La3ZrSb5,-1.184150751666667
15258,B,0.0
15259,Tb3Rh2,-0.745747994857142
15260,Ba2CaSeO6,-2.549794846234376
15261,La4In21Pd10,-0.537942025428572
15262,Ba4USe6,-2.0788728671874996
15263,MnZnSe2,-0.7771179856546331
15264,Tb2(Al3Rh)3,-0.8333235399999991
15265,Sr3CdPtO6,-2.3425716949999993
15266,Rb2SrV4O12,-2.5608702566666675
15267,Ti7Cl16,-1.9282914786231893
15268,TlPb2Br5,-1.2523108822916669
15269,NpCl4,-1.9298527227499995
15270,PHSF2,-1.630214524791667
15271,K6Ge2O7,-2.033922021533333
15272,Ce3(Al3Ru)4,-0.6468241081578949
15273,SiAg2(S2O7)3,-1.6938836605694443
15274,Rb3LuCl6,-2.5052607752499996
15275,ZrSiMo,-0.7001293816666655
15276,EuIn4Ni,-0.3207332841666671
15277,Dy5(Ge5Ir2)2,-0.7775201602631586
15278,Cs3AlAs2,-0.48682724375718384
15279,CaLaAu2,-0.8259487862500006
15280,NaSr2(SnAs)6,-0.46509182665900395
15281,Er4CdPt,-0.6177242691666667
15282,KBaVO4,-2.7784282557857147
15283,Y4MgPd,-0.36614831694444544
15284,Pr3OsI3,-1.124272425714285
15285,VBrO,-1.9885180891666667
15286,Y2SeO2,-3.458994991135417
15287,CsFe2P5O16,-2.5172962706082376
15288,Cs2UBr6,-1.9731157745402297
15289,Ru3W,-0.06950157124999912
15290,Yb5Sb3,-1.0376374356250002
15291,Rb2Pt3S4,-0.9384345163888889
15292,CaZnPd,-0.6379041266666666
15293,UGaRu,-0.35030146638888954
15294,HoCoC2,-0.35299041874999926
15295,Ce(GeAu)2,-0.498039833
15296,CaCrF6,-3.292586495625
15297,K(NpSe3)2,-1.3497941127291664
15298,DyCo5Si3,-0.5914663707407413
15299,Rb2NpO4,-2.8707471905357145
15300,ZrIr,-0.8618473787499994
15301,KRe2O4F7,-2.551392127178571
15302,Sm2InNi2,-0.47212409200000066
15303,KGeSbO5,-2.1141019861562507
15304,W(S4Cl3)2,-0.914775974666666
15305,LaCdAu,-0.6711495716666663
15306,NbCoSi,-0.707290094166666
15307,Cs2NaPrCl6,-2.475084395741379
15308,K3BS3,-1.2547679210773808
15309,Re2P2O11,-2.305670476111111
15310,Li3Mn3(PO4)4,-2.5384638574535816
15311,Ho3Ga15Ru4,-0.5144103276136366
15312,POsS,-0.6270105296527776
15313,K2CuF4,-2.546094591571429
15314,Cr2PIO4,-2.1489223576041665
15315,La2Co14B,-0.10563800686274509
15316,NaAuSe2,-0.736394444059806
15317,ErAlCu,-0.4631793077777778
15318,PuB2Os,-0.4339894077083333
15319,CaDyRh2,-0.6194231950000004
15320,Ta8CoSe8,-0.8752519752205885
15321,BaZn(SeO3)2,-1.9169241734687503
15322,ZrPt3,-1.0219263187499994
15323,Te2MoO7,-1.6677598750000002
15324,NdCdAu,-0.6457772488888891
15325,TlIn3S5,-0.8103268965509258
15326,Tm(MnGe)6,-0.32417709494252844
15327,K2PtCl6,-1.611611978444444
15328,PuP,-1.1936563666666657
15329,Y2GeI2,-1.387992539666667
15330,DyGePt,-1.1314996483333335
15331,CsGaTe2,-0.9508539369827584
15332,Rb8Tl11,-0.12562306798245634
15333,CaMg2(SO4)3,-2.4989033127430553
15334,Rb2PrBr5,-2.2174508996875
15335,CaGePt,-0.9070047433333333
15336,LaSe2,-2.0729241615625003
15337,BaSrTl2,-0.4183649083333334
15338,Li4TaN3,-1.0444710204166672
15339,PrSnAu,-0.8298032549999999
15340,LaGa4Os,-0.4744786561111114
15341,DySi3Rh5,-0.9616279401851849
15342,YMg149,-0.026102783311111086
15343,Dy(AlCu)6,-0.3521176715384617
15344,Ce3Te4,-1.6457032385714285
15345,TePb,-0.6167456649999998
15346,LiAu3,-0.36616702583333316
15347,Sr3CuPtO6,-2.2379546490909092
15348,NbGeSb,-0.39542700499999955
15349,TmSe2,-1.8163225321180552
15350,HfAl2,-0.4413193108333324
15351,Al21Pt8,-0.7566054001724134
15352,K2SmCl5,-2.5479389323125003
15353,SrBrF,-3.394717090555556
15354,Gd2NiB10,-0.5282950358974355
15355,K(TeO3)2,-1.616657863666667
15356,La2CuS4,-1.927660721071428
15357,Li3Sb,-0.6851582700000001
15358,Bi2Pd,-0.23968416166666687
15359,KNbSi2O7,-3.1133185093636357
15360,Tl2SbF5,-2.3933943636458332
15361,U2Mn3Si,-0.2903538572988514
15362,B5Ir3W2,-0.3665819485833325
15363,RbP4N7,-0.6889120102777776
15364,CsNb2PSe10,-0.92797615319299
15365,ScCuSi,-0.6450518072222222
15366,Hf3(MnGa3)2,-0.4025129741692798
15367,Pm2NiRh,-0.4829258537499994
15368,BeGaIr2,-0.49359501562499997
15369,La(FeSi)2,-0.5840821730000002
15370,GdNiGe3,-0.5844122679999998
15371,ScGePt,-1.0659695524999993
15372,YPt,-1.2564253933333331
15373,Rb4Zn(MoO4)3,-2.1377828959375007
15374,Yb(FeGe)2,-0.40060128000000006
15375,NaSrB5O9,-2.950046264940733
15376,NaCoF3,-2.6070769563103453
15377,TiAsRu,-0.7169620399999985
15378,Na3H(SO4)2,-2.068618082028941
15379,NdGa3Pt,-0.7241960144999993
15380,Yb3Ge5,-0.5705109356250002
15381,Ca6Ag16N,-0.32985216746376855
15382,InBr3,-1.240911061875
15383,CaPmAu2,-0.814345034375
15384,ErZnNi,-0.4776935433333331
15385,SbI3(BrCl3)2,-0.7843629524999999
15386,MnSb2F12,-2.725994481862069
15387,Lu2CuPt,-0.8418743925000003
15388,Tb(NbSn)6,-0.3143661692307704
15389,CdSnRh2,-0.3390924862500002
15390,Ho2(Ga3Ir)3,-0.6659624358928566
15391,Na2Mn2S3,-1.0127569558343603
15392,TlGaF6,-2.526984768229166
15393,Ce4CI6N,-1.5423139270833335
15394,NaAlB14,-0.14498116561781593
15395,SbRh,-0.5920839512500002
15396,Tm2Ni12As7,-0.5258693256349202
15397,BaNa2Nd2Si4CO15,-3.1827850240241378
15398,LaNbO4,-3.557872843333333
15399,NdMgSi2,-0.4863792787500003
15400,MnTc2Sb,-0.06369222948275777
15401,CaTh(PO4)2,-3.420385350972223
15402,SrMn5(SO4)6,-2.15328632282607
15403,RbDyS2,-2.0984336534375005
15404,PrAl4Ni,-0.5402215291666673
15405,Ni2Sn4Au,-0.2132308642857141
15406,Pr(Ni2Sn)2,-0.40502210285714263
15407,Ba2ZnAs2,-0.9502189050000002
15408,Mn2ZnO4,-1.9823252001231526
15409,LuSiRu,-0.8756296008333327
15410,YbAl3Au,-0.514528052
15411,Co5Te4Cl4O11,-1.4040823685416666
15412,MgBHO3,-2.6011987673611103
15413,AsPdS,-0.524221408541667
15414,AsPO4,-2.2011649588888886
15415,Cu(RhSe2)2,-0.6511631049107142