,formula_pretty,formation_energy_per_atom
3024,Sr3SnO,-1.6442958440000006
3025,K2Mn2P2O7F2,-2.7337862920685816
3026,Ba2NbN3,-1.1585978024999999
3027,Np(PS3)4,-0.7447962708578431
3028,SmGaSi,-0.6617470608333331
3029,NdMgIn,-0.41133667222222237
3030,SmNi2,-0.36313556833333394
3031,Ho2Ga3Cu,-0.5955631237499995
3032,LuAu2F9,-2.387814742222222
3033,RbCaF3,-3.718474268999999
3034,Yb2HgGe,-0.6941528874999996
3035,DyB4Ru,-0.6354361731944446
3036,K2Sn(S2O7)3,-1.8992284548250002
3037,Hf6Co23,-0.24842964844827584
3038,CaGdHg2,-0.53693847
3039,La3AlN,-0.8344300840000003
3040,LaCuSeO,-2.3141288255859376
3041,SrIn4Pd,-0.4464213194444439
3042,Ac2ZnGa,-0.3484216906250004
3043,RbHfF5,-3.8960849407142857
3044,Zn2BIr2,-0.2990642551666677
3045,Pr3RuI3,-1.1740891349999996
3046,Rb4SnO4,-1.7707643349999995
3047,LiHoO2,-3.303178772083333
3048,Ba5V5O14,-2.85959885375
3049,LuBi2BrO4,-2.4283848334375007
3050,AgPO3,-1.9605586965000001
3051,Ba(H2O3)2,-1.3583960404545457
3052,SrInHg2,-0.40873153416666685
3053,ThB4W,-0.5418027777777775
3054,CeH3,-0.6046415649999997
3055,KAs4(HO4)3,-1.6274631059
3056,YIn,-0.4925900583333327
3057,BePd2,-0.506112018333333
3058,V2Ni(PO5)2,-2.468187926444445
3059,K3CaP2HO8,-2.7246545380444434
3060,ZrTe3,-1.0331436912500003
3061,KAsO3,-1.9424460388500013
3062,CsTi3Si2P6O25,-3.002877710890029
3063,YbNiSn,-0.5806071083333334
3064,Y2Ge5Ir3,-0.723191816333334
3065,CaIn2Pt,-0.68731591875
3066,Gd(BRu)2,-0.537474366666666
3067,RbInPHO5,-2.3014456842592588
3068,LiBIr,-0.5138289791666667
3069,KTm2F7,-4.2348623711333335
3070,UGa5Os,-0.2785184817857141
3071,U2Fe3Si,-0.3707052933333337
3072,CaTiO3,-3.5560871571666666
3073,TaCuRh2,-0.44134345750000037
3074,Na2CrH2F8,-2.5672978379310356
3075,Ca2H6Os,-0.7137412794444447
3076,Er5Pb4,-0.4954046230555562
3077,TlPb,-0.003800856666666519
3078,AlPt,-1.0414113487499996
3079,CeY(MgNi4)2,-0.3939963426388881
3080,CdHg6(As2Br3)2,-0.5616272702941179
3081,PuS,-2.025354661562499
3082,LiSm(CuP)2,-0.8002387275
3083,LaIn2Ni9,-0.2068408608333332
3084,Th2Se3,-1.9860757694062485
3085,Ce(Zn10Ir)2,-0.22962122956521733
3086,Rb2LuAgCl6,-2.1828828021666666
3087,SmAl,-0.4046827806250004
3088,K2CuP,-0.3282122998333339
3089,Er2Co17,-0.10658903815789394
3090,Ni(SbO2)2,-1.6231249374999999
3091,Er3Ga2,-0.5429345122500002
3092,Na5NpO6,-2.456081727625719
3093,Te8RuCl2,-0.6240207381818181
3094,Ba2GdMoO6,-3.040582551999999
3095,CeGa3Ni,-0.5900384394999996
3096,Sm3Ni,-0.19365817562499998
3097,WSBr4,-0.941085861770833
3098,LiAlPd2,-0.815358588333333
3099,Ca3Be2Si3(HO6)2,-3.091775173636364
3100,Lu11(Ni10C)6,-0.29247734896103844
3101,K2Li3CoO4,-1.7768002916000007
3102,Eu(Al10V)2,-0.23873920695652187
3103,Er2TlCd,-0.32020847583333323
3104,Tl,0.0
3105,MnTlCl3,-1.4419075002528736
3106,Ta3Ir,-0.32175422500000117
3107,CsCuF4,-2.235172599655172
3108,MoF3,-2.7664092456250007
3109,Nb3Sb2Te5,-0.6448895344999996
3110,Tm2MgIn,-0.2841495283333333
3111,La2Br5,-2.330996723928571
3112,Ho(SiPd)2,-0.91029172
3113,Eu2SiCl2O3,-3.156031678749999
3114,Y2NiRu3,-0.34896023638888823
3115,LiB12PC,-0.27292407011111003
3116,La3As2ClO7,-3.0761755161538464
3117,CrH2,-0.047714873333333685
3118,CaMnP2O7,-2.901785254963427
3119,K7Nb(SO4)6,-2.2606035102565794
3120,Nd2Mo(SeO5)2,-2.4355741463125002
3121,Ba3CoIr2O9,-2.057948070333334
3122,GdBr3,-2.318368524375
3123,SrAl3Ag,-0.28075237266666664
3124,CaBiClO2,-2.432456591
3125,InAgS2,-0.6777584844791664
3126,V3Si2Mo3,-0.4791233337499996
3127,Np2Tc4O23,-1.9633540723275866
3128,SbPb,-0.014952329999999847
3129,BaNd2BeO5,-3.4367408155555563
3130,Sc2NCl2,-2.3010648349999996
3131,InSnCl3,-1.3038340959999999
3132,ThRu3C,-0.2901505990000004
3133,Dy4Te3N2,-1.778847036388889
3134,K3Sn4Au,-0.34394336987499985
3135,ErAlGe,-0.640069141666667
3136,Mn2VGe,-0.2775240352155173
3137,Dy(Zn10Ru)2,-0.19623330217391308
3138,AcAlO3,-3.6900194215000006
3139,AlCr4AgS8,-1.012492526547619
3140,NaMg3Si4O11F,-3.2203551174525864
3141,TbGeIr,-0.9263795716666673
3142,Na2O2,-1.3076940424425285
3143,Ba2FeWO6,-2.6401733755000008
3144,LiP4WO12,-2.540207778842591
3145,Sr2Si(S2O7)4,-2.101416892521368
3146,CsYbP2O7,-2.8641503383725175
3147,Ta2Co,-0.24926148833333292
3148,LuMgPd2,-0.8657248025
3149,Ba2CaP4(H3O8)2,-2.56265606321839
3150,HoH3,-0.7338439279166664
3151,LiEu2Si3,-0.47624125638888987
3152,Na5InTe4,-0.9737725361508616
3153,Rb2Mo3P3O17,-2.3850262453999993
3154,Pr8(BCl)7,-1.4166803083712112
3155,LaSiNi,-0.7015029533333319
3156,Cs2CuF4,-2.4865919951231525
3157,Zr5ZnSn3,-0.5833697150000003
3158,Ba2SmNbO6,-3.396625330250001
3159,Na3YSi3(HO2)6,-2.450744248252873
3160,Sm3(SiIr)2,-0.9281670542857147
3161,Rb2NiP2,-0.4362603463333336
3162,SrSc2O4,-3.738229661309524
3163,Cs4(BS)9,-0.9877206923795062
3164,V2CrRu,-0.2442415212500002
3165,Cs3AlF6,-3.3855425758793105
3166,AgIO3,-0.7151450003333331
3167,ScIn3,-0.29833564374999977
3168,SrCu2GeS4,-1.043854825104167
3169,Hg7(PO5)2,-1.4020713316666669
3170,NaTi5O10,-3.3606997355136503
3171,Na2Gd4NCl9O,-2.6406353748884386
3172,BaPPd,-0.9502411661111108
3173,K2RuBr5NO,-1.2869458378500007
3174,Rb3Nb2Br9,-1.6321259367857144
3175,Pr23Cd4Pt7,-0.5816776192647064
3176,La2NCl3,-2.581794783333334
3177,Yb2TlPb,-0.5347608533333328
3178,YCrO3,-3.1995367278333333
3179,Ba3YRu2O9,-2.6245319971111116
3180,Ce2BiO2,-2.871467100000001
3181,Sr5Nb4O15,-3.299143497222222
3182,Zr5Si3N,-1.0962044394444443
3183,HoCdAu2,-0.6730178099999997
3184,DyInAu2,-0.7050221724999997
3185,RbCaCO3F,-2.793709698333334
3186,LuRhO3,-2.6121941754999995
3187,KNaLi2(SO4)2,-2.294795548747742
3188,HoTl(WO4)2,-2.508120987777778
3189,Ba3In2MoO9,-2.5212885003333336
3190,Gd3SnC,-0.6078722290000016
3191,ZrZnNi4,-0.4136180200000001
3192,KSr2Si4O10F,-3.3446457022962957
3193,Ca3Tl2O6,-2.317116405151516
3194,Tm2Ge2O7,-3.0864578809848484
3195,Nb7(B4Ru3)2,-0.6021850901587291
3196,AcTiO3,-3.6076357381666675
3197,Sr2FeMoO6,-2.533175237750001
3198,KFeO2,-1.7371028452812496
3199,GaNi2Pt,-0.3774731068750006
3200,YAsS,-1.7208608499305562
3201,Sr2RhO4,-2.3663489679761907
3202,LiAg2Sn,-0.23566422041666701
3203,CrTe3,-0.4505254556250007
3204,CuAsSe,-0.2865225607812499
3205,V2AsC,-0.5337953174999992
3206,Nb3Ga2,-0.3632177859999999
3207,PmBiRh2,-0.46774517437499963
3208,Co21(B3Mo)2,-0.21234192310344788
3209,Cs2LiCeCl6,-2.4583976284195397
3210,Sc6C2I11,-1.3507210326315784
3211,CeNi5Sn,-0.3891111571428577
3212,Na4TiP2O9,-2.7902814992629303
3213,Er2BPt6,-0.9514150543518523
3214,Ba2As6O11,-2.066299626842105
3215,Tm(SiNi5)2,-0.44874774320512884
3216,Co3(AsO4)2,-1.5596308296153842
3217,K3Co2F7,-2.6770907988749997
3218,K4PH5Se3O16,-1.6995039833573986
3219,NaZnSb,-0.3675699505172414
3220,LaGe3Rh,-0.7616580580000004
3221,Y(GeRu)2,-0.6537417193333326
3222,KTlBr4,-1.3140298573055553
3223,YGaRh,-0.8900322105555555
3224,Ag5PSeO4,-1.1410800485464014
3225,KNaZnO2,-1.6351506479103446
3226,Pr4InSbS9,-1.8146960643749996
3227,Tb3Rh,-0.5080027787499999
3228,KNaGdNbO5,-3.0111702405057486
3229,Lu2B6Rh,-0.6866947697222222
3230,YZnSn,-0.6063653780555557
3231,Ho2(SeO4)3,-2.0891006395312495
3232,K4Th(MoO4)4,-2.4330806792800015
3233,Tb5BiPt2,-0.9100533849999994
3234,Ba3B(BrO)3,-2.9269973791666666
3235,PaCl2O,-2.9861400939583334
3236,Mn2V3Cr(PO4)6,-2.611497244051724
3237,Dy2Te5O13,-2.19684373475
3238,YGe,-0.8945239958333326
3239,KAlF4,-3.6533316138333336
3240,Na6Mg2C4SO16,-2.2560597302563914
3241,BiPdSe,-0.5308472799479164
3242,TiCo2Ge,-0.5124312795833337
3243,SnPd2,-0.5406741200000003
3244,ErGeRu,-0.7328356575000008
3245,LiAlO2,-3.082882981458333
3246,RbGaH4,-0.3005175412499999
3247,NaCdSb,-0.3887769713505748
3248,Ce5Sn4,-0.5766759672222221
3249,Cs3Bi,-0.2837555784482757
3250,GdGe,-0.8571168275000005
3251,Lu2Fe2Si2C,-0.6794932271428564
3252,Tb(FeB)2,-0.4320059956666668
3253,La3Ga5O12,-2.923090592
3254,Nd(BIr)2,-0.7325231886666671
3255,Zr2TlC,-0.6275597070833339
3256,Er(SiPt)2,-1.0651940640000006
3257,NpSb2,-0.366946622083334
3258,Li2TiO3,-2.9819544033333343
3259,Li(TiSe2)3,-1.4411682037395834
3260,TaAl2Ni9,-0.437733501666667
3261,Rb2CoO3,-1.463856598333333
3262,K4HgAs2,-0.4388735110000001
3263,Mg(AlGe)2,-0.0827032359999997
3264,Eu5Si(Cl3O2)2,-3.041820123437499
3265,CeSbTe,-1.3392925666666666
3266,Tm6FeBi2,-0.4188689377777766
3267,KF2,-2.1260337193333334
3268,Er4MgRh,-0.4072883166666668
3269,Bi15AsO25,-1.6618146029878058
3270,K4MnMo4O15,-2.1535638427054606
3271,ThB2C,-0.5239411029166661
3272,TlIn5S7,-0.7970640057852569
3273,Nb3Sb(PO4)6,-2.7578146148529403
3274,PmTlTe2,-1.0470045427083337
3275,EuAlSi,-0.4629925283333319
3276,Ta2Be17,-0.18237132815789517
3277,SmBi2IO4,-2.2973663050000006
3278,Ba2BN2Cl,-1.6360780029166666
3279,NdFeSi,-0.5491039716666654
3280,NdNiC2,-0.25750280249999946
3281,UMn2,-0.046064715287356485
3282,Dy2P7Rh12,-0.9232307082539684
3283,SrGa2B2O7,-2.769393090833333
3284,Sr(CuSn)2,-0.3456586533333336
3285,K2NiH12(SO7)2,-1.6055317994274187
3286,GdMnGe2O7,-2.533880653448276
3287,Na2AgAs,-0.3819602049425286
3288,AgBF5,-2.427506961904762
3289,Na3In2Au,-0.23696006452586213
3290,ZrCdCu2,-0.1477695324999999
3291,Na3Mo(OF)3,-2.568234995215518
3292,GdH(SeO4)2,-1.7694925777864572
3293,Cs2NdAgCl6,-2.197482848252873
3294,Ba3Ti20O40,-3.4804693539153435
3295,SmMg3,-0.10533516874999993
3296,KVPO5,-2.654270363916666
3297,Cs4BaV6O18,-2.519028040576694
3298,LaI2,-1.6723846283333337
3299,NaCdPd2,-0.23985931413793082
3300,Li2B6O9F2,-2.89986915114035
3301,GaTeO3F,-2.063367447500001
3302,Co2P3O10,-2.2555800946666666
3303,Nd(SiIr)2,-1.0346988519999996
3304,Tb3ZnAu5,-0.7955625772222221
3305,NbCl4F,-2.0850661758333335
3306,CaMn6SiO12,-2.3852860213793106
3307,Zr2TcRu,-0.5304080112499996
3308,NdCdNi4,-0.28192523833333283
3309,KCuIO6,-1.0229935397777778
3310,Mg4HgAu,-0.3503582524999998
3311,LaTe,-1.8045673275
3312,AgHgPd2,-0.14353725041666632
3313,VPb2Se3O10,-1.6178597285644534
3314,TiTc2Ge,-0.38023791208333435
3315,GdRh3C,-0.46097356599999983
3316,LuSnAu,-0.8157420983333333
3317,CaSb2,-0.7406983049999999
3318,Tm(SiRh)2,-1.1092667733333328
3319,CaP2(HO)4,-1.8161587919696978
3320,TbAsO4,-2.8467551558333333
3321,Li8SeN2,-0.7197135867282198
3322,Li15Au4,-0.3525713423684213
3323,Ba14Na14LiN6,-0.302956960144499
3324,La3Pt3O11,-2.3299309672058817
3325,Zr4NbGa3,-0.5054416009375
3326,Ba4Sr2La2Co4O15,-2.591248127345679
3327,CsP7,-0.1976252423455458
3328,Cr4GaCuSe8,-0.8020061054464277
3329,Tm9(FeGe)10,-0.547980605172413
3330,Ba5Nb3O3F20,-3.683868058064516
3331,Ba2SrUO6,-3.5095869086666673
3332,Sr3Ga2Cl2O5,-2.8158780612500003
3333,Ga5Pd,-0.2569351404166665
3334,AlVRu2,-0.6416661374999997
3335,MnGaPt,-0.4542352918103442
3336,CeMg2H7,-0.4208655032500005
3337,Zr6Ga2Fe,-0.3684748594444456
3338,CeZnSi,-0.5195086516666668
3339,LiPm2Si,-0.3374357095833336
3340,NbAlO4,-3.226088386666666
3341,BaAl4(SbO6)2,-2.9351262839473677
3342,Ba3LiIr2O9,-2.1869575535555565
3343,BeGaRh2,-0.671457313124999
3344,Gd2MnNiO6,-2.801422737293103
3345,Sr2NbN3,-1.2229387718055555
3346,Sm(Sn3Ru2)2,-0.33414222227272783
3347,ErInRh2,-0.7843438100000002
3348,Er(FeGe)6,-0.2791173823076922
3349,Na4H4PdPt,-0.3499397716206897
3350,Zr(CuP)2,-0.6591138693333335
3351,TiP2(S4Cl)2,-0.9595973415384609
3352,GdMgNi4,-0.3791234233333339
3353,K4Sb2O5,-1.8613783347272734
3354,LiS4,-0.6282060691666664
3355,Sr3(GeAs2)2,-0.7962419436111108
3356,InTeBr,-0.8911020233333332
3357,Mn3B7BrO13,-2.64302210210249
3358,CeTmS3,-2.372894890958334
3359,Mo2P3O13,-2.3708128206944457
3360,NdIn2Pd,-0.6502923682500004
3361,NbSb2,-0.3984885149999992
3362,LaCuNi4,-0.2724289158333342
3363,Zr9(In2Co)7,-0.3001789558333333
3364,LaSb(SBr)2,-1.663912903125001
3365,NaSbF6,-2.867056756443965
3366,Hf2Fe,-0.18248530875000077
3367,TmClO,-3.5843451622222227
3368,RbPPbS4,-0.9711179072619051
3369,Tl3GeTe3,-0.4384601100000002
3370,Tm2Mn12P7,-0.7175873762780517
3371,Lu2CuIr,-0.6980386774999996
3372,Cs2TlFeF6,-2.72933390941954
3373,UIr,-0.4969661924999986
3374,ThCd3,-0.14576522625
3375,ErGaPt,-1.109874064166667
3376,Ho3Si3O10F,-3.725188778382353
3377,Sr2CuO3,-2.4368141980555555
3378,Ba3YbRu2O9,-2.539058345000001
3379,Ca11Bi10,-0.8063157859523811
3380,Ba2YbTaO6,-3.2839459910000004
3381,Ce2ZnBi4,-0.5103361214285717
3382,CrBiTeO6,-1.8645597027777785
3383,K5Ce2H2S6O25,-2.3573003069687504
3384,Zn11Rh2,-0.2619451907692309
3385,Ba2SbAu,-0.9846413525000002
3386,Tm3Si3Ni,-0.8003380150000002
3387,Al2SiO5,-3.3748305159375
3388,KAuS5,-0.6948058190892858
3389,Ga2IrRu,-0.41871115249999935
3390,Nd3InS6,-1.9898872006250001
3391,FeMoP,-0.5911474036111114
3392,GaPPt5,-0.44700232297619025
3393,LiVCrO4,-2.460201116904763
3394,TlPd3O4,-0.9443212710416669
3395,K3FeF6,-2.9163206484
3396,TaTl(GeO3)3,-2.3375426659523817
3397,Sc7CoCl12,-2.1611012174999997
3398,Ce12(ReC3)5,-0.2791915545312502
3399,Sm2Ge5Ru3,-0.6497161234999993
3400,Er3Ga15Ru4,-0.5096571231818174
3401,TlI3,-0.6269106695833335
3402,Ba4Sc2Cu2O9,-2.8092680797058835
3403,Rb3As,-0.24884174812500004
3404,K2ZnBr4,-1.7293202458571428
3405,Li4Mn5O12,-2.053914901094691
3406,Gd5(AlCo)2,-0.3147873538888888
3407,Ho2CdIn,-0.39785815499999977
3408,HoB4Mo,-0.6335642427777776
3409,AcMg149,-0.02000945101666673
3410,YbAl2Ni,-0.5286191600000003
3411,Ba(PN2)2,-1.0396205308333322
3412,ZnP2,-0.24848223430555608
3413,BaI2,-2.0507060824999996
3414,CsMnF3,-2.991786487005748
3415,CaN6,-0.4628188142857143
3416,TiBrN,-1.677940890277777
3417,KAcTe2,-1.5078631138749996
3418,La(CoB)4,-0.44508693851851827
3419,Cs2MgP4(HO2)8,-2.219158830296626
3420,CsCSN,-0.6707056577640094
3421,V5Si3N,-0.7406990405555562
3422,Ta27S50,-1.3983083430681813
3423,Lu4CdNi,-0.32372847249999975
3424,Lu3Ga5Co,-0.6161227069444443
3425,GdDyIr2,-0.7900516674999984
3426,EuPAu,-0.9146174794444436
3427,KHoO2,-3.1276520057499995
3428,Rb2TiV3(PO6)3,-2.689207494660494
3429,Mg5Sn(BO5)2,-2.9096559562962963
3430,Sm2(SO4)3,-2.622412530551471
3431,TaNO,-2.267747870833334
3432,Tl8Ge5O14,-1.637090947469135
3433,DyGaNi,-0.6116939950000001
3434,RbAs4(HO4)3,-1.6309316396250004
3435,AlAs,-0.48514216249999986
3436,La4CdPt,-0.5484813525000002
3437,Rb2MnSe2,-1.114751237523707
3438,Zr2InC,-0.6926456875000007
3439,Er3Ru,-0.35439457875
3440,NaMg2V3O10,-2.591231253846983
3441,Y3(AlNi3)2,-0.5550523490909091
3442,NdHoIn2,-0.46462614500000043
3443,Er5Bi3,-0.6438719859375004
3444,MnAs,-0.27056749146551695
3445,BaCe2MnS5,-2.0265689137284486
3446,K4HfO4,-2.420392337444445
3447,LiPm2Ge,-0.426732410833333
3448,KRuO4,-1.5805920646666667
3449,CsGaS2,-1.304407984170258
3450,CsAlF4,-3.6428814831273946
3451,EuErTl2,-0.3460879154166667
3452,ThSbSe,-1.480678250781251
3453,CsErTa6Cl18,-1.9122701801127326
3454,Y3Ru,-0.30609261375000063
3455,La3SnC,-0.4906558220000001
3456,Pr2MgSi2,-0.6315764770000001
3457,Al4Fe2Si5O18,-3.1046484244827597
3458,CrF2,-2.8244658250000003
3459,TbB4,-0.5994054473333321
3460,CsTi(PS4)2,-1.0395599264942526
3461,Ba2SmBiO6,-2.7804803667500004
3462,Lu2Pd2Pb,-0.8422750449999995
3463,Yb2InPb,-0.5254138324999995
3464,Cd4OF6,-2.298085776818182
3465,Ba(GdSe2)2,-2.254199452767857
3466,PrB2Ir3,-0.6211231738888886
3467,CsLiU(PS4)2,-1.150662713815208
3468,Gd(CoGe)2,-0.6097850800000003
3469,Cs2NaNdF6,-3.5317329597413787
3470,YbAsPt,-1.0748268108333334
3471,CsB5O8,-2.834986083126026
3472,Mg(CuO2)2,-1.4986807564285713
3473,Pr4Mg5Ge6,-0.603312594
3474,Pr2ZnPtO6,-2.5617050244999993
3475,Ta2MnV3,-0.22932906465517297
3476,YH3(SO4)3,-2.0348437947258775
3477,Sc2Co3Si,-0.5999702424999995
3478,K3HoF6,-3.6115394723999996
3479,ThB2Ru3,-0.5140288072222224
3480,K2CoP4(HO2)8,-2.0887434788494623
3481,CeCuSi2Pd,-0.7220736669999994
3482,YSiIr,-1.0672786730555568
3483,Nb2Al3Ir,-0.6278045858333327
3484,Dy8Ni18P11,-0.9838189332882874
3485,Tc3B,-0.265645531041665
3486,SmSn3Ru,-0.4658716730000002
3487,ErTe,-1.416866810000001
3488,SrAl4O7,-3.4645329705555556
3489,Pr3Sn13Rh4,-0.5737509809999999
3490,K2(TcS2)3,-1.1141093186136373
3491,K3SnHF8,-2.8874686856923075
3492,Mg2TiB2Ir5,-0.5940600521666667
3493,Ca2PClO4,-3.2603054579166666
3494,Dy3(GeRh)2,-0.9249913960714277
3495,SmAl7Au3,-0.520171367272727
3496,NaAlGe,-0.18936389218390795
3497,SrNdNiRuO6,-2.379850012166666
3498,Pm2SiNi,-0.3732166512499999
3499,YCoC2,-0.3372983879166682
3500,Tb4CdNi,-0.29004431291666677
3501,AlAsO4,-2.4448375541666665
3502,Na3CuO3,-1.4519869175697868
3503,Tm(MnGe)2,-0.4683606285057479
3504,La(Sb3Ru)4,-0.49770448911764686
3505,Ac2IrPd,-0.6283439387499996
3506,Eu4Bi3,-0.8950656942857143
3507,KGaP2O7,-2.642185049060606
3508,K4ZnAs2,-0.4557927788571427
3509,NaCdPO4,-2.3971190185550078
3510,VPHO5,-2.366179399479167
3511,Pr5P12Ru19,-0.8174942758333338
3512,ZrGeO4,-2.9644210391666674
3513,Pr30Ti24Se58I8O25,-2.3484954944202587
3514,Zn(InS2)2,-0.9082827546428572
3515,Sm2Mn12P7,-0.6796924961193224
3516,Sm2Be2GeO7,-3.2594550379166667
3517,AgTe4Au,-0.35564056611111106
3518,Pr3CoGe2,-0.6362019412499992
3519,TbTl3,-0.25035884249999985
3520,NaZnAsO4,-1.9360616624835794
3521,CsTm(MoO4)2,-2.552015475383142
3522,LiFeRh2,-0.12166908083333272
3523,PbBr2,-1.2824953266666663
3524,LaMgAu,-0.6623601938888888
3525,Dy2In,-0.3478931283333336
3526,Rb2NiH12(SO7)2,-1.605178678266129
3527,ScIO,-2.8917588466666664
3528,CsMnO4,-1.4917327038936794
3529,Rb(V3S4)2,-1.2912580888333338
3530,BaY2Si3O10,-3.5937014533333347
3531,Ho10Si17,-0.6159224785185183
3532,SmMg2Cu9,-0.17199060666666632
3533,LiSc2Tc,-0.12282273583333314
3534,DyAgPb,-0.4031880472222215
3535,TmCoSi,-0.7379476580555545
3536,Ag2SeO3,-0.8285477613628469
3537,NaCeH2S2O9,-2.2483035259645594
3538,NdSnAu,-0.834030766666667
3539,Cd43Pd8,-0.1614051315686274
3540,SmGaPd,-0.8628682783333327
3541,CeHg3,-0.3149206512499998
3542,ReSb(OF4)2,-2.5101183172916675
3543,SmAlGe,-0.6582420266666672
3544,NaUO3,-3.2912015928103444
3545,U3S5,-1.7563739169531258
3546,H7ClO7,-1.0119970086666663
3547,AsPd2,-0.3691487741666665
3548,Si2Ni3H4O9,-1.9532831908333337
3549,Sr2ScSbO6,-3.114359580333333
3550,MnZnF6,-2.5496697053663797
3551,Nd2(Ga3Co)3,-0.469428054821428
3552,Nb2B2Mo,-0.6416840916666672
3553,NaCaBO3,-2.913227080119732
3554,TmAgPb,-0.33400423222222186
3555,Sr2MnSi2O7,-3.2103985492720306
3556,CaCdHg2,-0.37141876249999994
3557,BaCu9Sn4,-0.14049493821428527
3558,NiWO4,-1.9000941049999998
3559,ErMgGa,-0.48033610250000003
3560,SbTe(IF2)3,-1.8935313397727271
3561,NiBiPO5,-2.118077928229167
3562,Pm3Al,-0.18197108687499952
3563,Li2CdIn,-0.28997707666666694
3564,CeGa2Ni3,-0.5129778716666666
3565,Nd(FeSi)2,-0.5951689819999999
3566,BiPt2Pb,-0.25421243749999967
3567,Gd3P4Pd7,-0.9900814088095241
3568,ZrAsRu,-0.8556541744444451
3569,Rb3RhF6,-2.5962954037500006
3570,Ni(RhS2)2,-0.7384233975000001
3571,Dy2TeO2,-3.332539276
3572,CsAlBP2HO9,-2.764577861917625
3573,NpPt3,-0.6111489934375012
3574,LiPrGe2,-0.6679148533333334
3575,Ho2Si5Rh3,-0.9645010580000004
3576,MgGeH12(OF)6,-1.870105595961538
3577,HoSbPt,-1.2806868300000005
3578,Pr2WO6,-3.185231938333334
3579,Rb2CaV2O7,-2.640783560208334
3580,YbPmZn2,-0.34058427437499983
3581,BaBiSe3,-1.31720051215625
3582,CeGa4Os,-0.4636848372222215
3583,HoZnSn,-0.5725251733333335
3584,KVF3,-3.0446895221000005
3585,RbAsF6,-2.7569520659375
3586,LaTaN2O,-2.2180799940000013
3587,LiAcRh2,-0.36156788145833385
3588,BaCaSi,-0.39370987083333375
3589,MnCuF6,-2.231473114116379
3590,LaSeO3F,-2.819328125668404
3591,Cs2MgSi5O12,-3.140273622980603
3592,GaNi2BO5,-2.0054596762962955
3593,Sr2SnHg,-0.6501028783333334
3594,LaMnSi2,-0.5752513982327594
3595,AlC3(NCl2)3,-0.8107930005769219
3596,Ca3SiO,-1.5981094470000001
3597,RbTa(CuSe2)2,-0.9879065058593755
3598,KNaPrTaO5,-3.1068808777279693
3599,YMgCu,-0.21441913555555597
3600,NbAlOs2,-0.43821136999999943
3601,Ba(TmSe2)2,-2.2314654471726194
3602,SrSi3Ni,-0.40722688733333356
3603,Na2H2Pd,-0.25890943462068955
3604,In5S5Br,-0.8254671643750006
3605,CaTi4(PO4)6,-3.099726859809524
3606,Al2P3H9(CO3)3,-1.6907576187500006
3607,Y2Ti2S2O5,-3.2958803555681815
3608,Sr2LaBiO6,-2.8069192288333342
3609,Ce2Ni12As7,-0.5291881659523808
3610,Na2LiAlP2,-0.6366017501005748
3611,BiOF,-2.2159554341666676
3612,Yb7Au3,-0.675342337
3613,NaCe(PO3)4,-2.8839371598547263
3614,Na4Hf2(GeO4)3,-2.6843351688669954
3615,Ba2HgS5,-1.4482190044531253
3616,YAlSi,-0.6077029705555544
3617,AgP(OF)2,-2.2646186158333337
3618,Cs3ErCl6,-2.53235682987931
3619,CaCuF4,-3.0418713758333342
3620,Ba2GdNbO6,-3.4239569890000014
3621,TmNi5,-0.3394251994444441
3622,ErTeAs,-1.2864501866666676