,formula_pretty,formation_energy_per_atom
25270,AsXeF7,-1.8977470958333338
25271,Lu6InCo2,-0.3104445177777772
25272,MgMoF6,-3.1797933768750006
25273,Cs3Ge4Au,-0.2737351342241374
25274,Eu4As3,-1.2302545914285707
25275,NbSiAs,-0.5689292299999996
25276,VCoB3,-0.6155714224999997
25277,ErInPd2,-0.8405161974999995
25278,Rb2TmCl5,-2.5437310117708334
25279,SmBN2,-1.564741596458333
25280,NdH3(SeO4)3,-1.507582305106908
25281,Na7Cr4P9O32,-2.6439874939588863
25282,CsTmZnTe3,-1.2928976124329505
25283,Li2RhF6,-2.477310257962963
25284,PuPt5,-0.5194992083333325
25285,SrSi2(BO4)2,-3.2075827323076918
25286,TmCo3P2,-0.9507369530555552
25287,Sm4Ga7Ag5,-0.4937961728645832
25288,Nd2MgPtO6,-2.8621932775000003
25289,Pb3Se2(IO3)2,-1.3367807453605767
25290,Er(NiP)2,-1.0059944233333333
25291,Nb2RuW,-0.1464138337499996
25292,CsPr9Nb(Br5N2)3,-2.0931543795447185
25293,RbHo2Cl7,-2.6815276535000003
25294,NdFeCoSi2,-0.6784188129999997
25295,RbBaTaS4,-1.7631966382142856
25296,Cd2P6O17,-2.4551589258000006
25297,La18In3Co28,-0.14703024142857185
25298,La2GeS5,-1.8346493132031245
25299,Cs2Re(ClO)3,-2.07248665954023
25300,Ga7Sb7(Te4Cl13)2,-1.217796482864583
25301,Ca5Ni17Ge8,-0.4340192576666671
25302,Rb(OsO3)2,-1.6623130047222219
25303,Cs3MnZn3(PO3)12,-2.5585979087586206
25304,CaTcO3,-2.4751201254999997
25305,KGaH4,-0.29488523466666666
25306,TlBi2Cl7,-1.4294221813333334
25307,CoH12(BrO3)2,-1.2083369753571431
25308,HoNiSn,-0.6711548961111112
25309,Yb3DySb3,-1.1456177335714288
25310,LaTiSbO6,-3.0767909064814822
25311,Sr2V3HO9,-2.71331474288889
25312,Cr7C3,-0.09984575537500007
25313,SmAgO2,-2.542335707916666
25314,Cs9(NbAs3)2,-0.4368386755223124
25315,InH5(NF)2,-1.1339638077500005
25316,U2CS,-0.8787711257812507
25317,Rb2LaNb2O7,-3.0013349570833334
25318,CeGaAg,-0.4124334513888884
25319,Ba2SmPaO6,-3.6832410255
25320,Pr2Mo2C3,-0.1753621203571417
25321,DyGePd2,-0.9131096649999995
25322,Cs2LiInCl6,-2.01546442591954
25323,Tm3Ni,-0.2751615049999998
25324,Eu2H6Ru,-0.6864089083333332
25325,Pr3PtI3,-1.4091687949999994
25326,NdInNi,-0.4509812422222221
25327,Y2SiO5,-3.7918269444791672
25328,Ca2Ge,-0.6139391783333329
25329,Na3FeS2(O4F)2,-2.2436692478690734
25330,Na4Al3Si3BrO12,-3.0635677886394306
25331,ZnCl2,-1.5568997900000001
25332,HoOF,-4.2811264575
25333,La3SiN4F,-2.015887697222222
25334,ErInCu4,-0.2823144683333337
25335,Rb2Na2SiO4,-2.335103407150383
25336,HoB3Mo,-0.6283130634999992
25337,Sm2(Zn2Ge)3,-0.40900751136363667
25338,Sr7W4O19,-2.8764092343888894
25339,Tb9(SbO)5,-2.4255586471052646
25340,Sc2OsPt,-0.83743804625
25341,CdP14Pb,-0.04420311682291622
25342,Ho6Ni20P13,-0.916533125213676
25343,Y(Sn3Ru2)2,-0.3240539115151506
25344,Na3FeO3,-1.7056467842364533
25345,RbGeCl3,-1.6913838954999996
25346,Cr3B7BrO13,-2.617598781319444
25347,Cs2LiScCl6,-2.4297207414195396
25348,Ce2Ni7,-0.3775996008333327
25349,KZn4(PO4)3,-2.438020047525
25350,Er2SiO5,-3.8366703399999995
25351,PmTmTl2,-0.3373116377083334
25352,CsClO4,-1.1061318675718397
25353,NdAl3Cu,-0.47164479600000037
25354,Cs(Ti3Se4)2,-1.4685839457787353
25355,Pr2MoO6,-3.097195645277777
25356,EuGa3Ag,-0.41087914483333277
25357,Y5Si3,-0.6934385960416671
25358,ZnPbF6,-2.398012201875
25359,NaCaTiMnSi2O8F,-3.1843002325210725
25360,BrF3,-1.2424303275000002
25361,V6SiGe,-0.4002994131249995
25362,Rb2MgSi5O12,-3.1297029258749993
25363,Y(SiRu)2,-0.8880547473333337
25364,Hf2MoIr,-0.6188397749999996
25365,Na3(Pt3O4)4,-1.0324646328921014
25366,Ca2Pt3O8,-1.8014902061538458
25367,Sm2Hf2O7,-3.9977812999999993
25368,Gd2SeO2,-3.43575459446875
25369,SmAsSe,-1.6132157524479176
25370,Y2AsS,-1.9297530753645837
25371,HoB4W,-0.6012095144444428
25372,TiMnP,-1.019811970421456
25373,PmIn3,-0.45963343687500036
25374,Ta4Se9I8,-0.8835792179092261
25375,RbAgBr3,-1.2112329393333332
25376,Ce3LuSe6,-2.3621041509062493
25377,Pr6RuBr10,-1.9140638511764703
25378,Cu3BiSe2BrO8,-1.1927066098125
25379,RbNa5(WN3)2,-0.6086803783220438
25380,Cr4InAgS8,-0.9379968836904767
25381,KPrO2,-2.9225646119999995
25382,Na2Li3FeO4,-1.8996487015603443
25383,La2Ti2O7,-3.784009469469697
25384,NaTlO,-1.1787883499616854
25385,VHgO3,-1.7893297380000006
25386,Na2HgO2,-1.3466661456206896
25387,Rb2Mn3Se4,-0.9213093259075672
25388,Li2SiN2,-1.1217624237083335
25389,Ti4Mn5V3,-0.2321436985823766
25390,CsP(HO)2,-1.6205563906273948
25391,Sm3FeO6,-3.3350202185
25392,YbMgPd,-0.6866716783333331
25393,U3(Al3Fe)4,-0.28288808052631514
25394,Zr2Sb,-0.7097692983333334
25395,TePb3(BrO2)2,-1.5241854795000003
25396,Ho2Pt2O7,-2.4695109418181804
25397,Mn4SiTeCl2O7,-2.1540565441149426
25398,Y6IrI10,-1.5117803752941181
25399,Dy4(Al8Pd3)3,-0.713152293513514
25400,MnCo2Si,-0.43691785948275896
25401,NaLi2B(PO4)2,-2.7384189445751232
25402,UTe5,-0.7092071187499999
25403,K10NbInAs6,-0.46141437472222196
25404,Rb2PbO2,-1.4998677050000002
25405,Sc2S3,-2.2146405513749996
25406,TePCl9,-1.122121800984849
25407,Ba5Sb4,-1.1377450666666666
25408,PrSBr,-2.359256770208333
25409,ErB2Os,-0.6069319002083331
25410,K3(Na13In24)2,-0.14723251804343965
25411,VRe2O9,-2.178650268333333
25412,BaCdGeS4,-1.279574747678571
25413,HoHg3,-0.33718239249999993
25414,Ti4CrBi2,-0.2146982740476194
25415,Sm3CuGeSe7,-1.5711496192838534
25416,DyCo5P3,-0.8437142033333337
25417,Ca(AsO3)2,-2.2299211600000004
25418,Ba3Te3(BrO4)2,-2.2871065207812498
25419,LiAl3,-0.10163692583333361
25420,Mn6PbO12,-1.8543424330308533
25421,Li5TiN3,-0.9913625119444447
25422,EuGe3Pt,-0.6475966640000003
25423,Sn3Ir2Se3,-0.6424632052539057
25424,Yb4Ge3Au5,-0.818826147083333
25425,LaCdPd,-0.6928783761111114
25426,V3Rh,-0.3217424637500006
25427,Sr2Cu(BrO)2,-2.287434582619047
25428,Fe2NiP,-0.38350783395833243
25429,DyPd,-0.8955283300000003
25430,Cs4KLiGa2F12,-3.0867630206528736
25431,Li3H6Ir,-0.56242685275
25432,MgV2O4,-2.7059761423809525
25433,Zn(GaSe2)2,-0.9152755777678573
25434,LiVN2,-1.0134646627083335
25435,Eu(AlAu)2,-0.6771106459999998
25436,Pm2ZnPb,-0.4087872462500002
25437,YAl3Ni,-0.5990709523333336
25438,PmGe3,-0.4077197068750005
25439,KAg2PS4,-0.7275065627708335
25440,Cs2KAsBr6,-1.5842401138862066
25441,Cd2Ni6Te3PbO18,-1.4416728460000001
25442,TlCuCl3,-1.080786386166667
25443,CaInCu4,-0.16798246500000028
25444,Ca6FeN5,-0.9326912583333341
25445,Ni6Ge2B,-0.31012904546296244
25446,Sb2AsAuXeF14,-2.2848105856578953
25447,HfNiP,-1.060395637777777
25448,Mg5Ga2,-0.12875401
25449,Pr(AgGe)2,-0.4327208796666667
25450,TbH2Br,-1.3010624281250003
25451,PrCrSe3,-1.495072062406249
25452,SeO2,-1.1541435741145836
25453,Li2Se2O7,-1.5312309833049234
25454,Sr4FeRh2O9,-2.3140737232291673
25455,PaSb2,-0.6472026683333342
25456,Mn(SbSe2)2,-0.5797526331865756
25457,Ge22Rh17,-0.47835568397435935
25458,MnZnIr2,-0.20869167198275917
25459,NdCo9Si4,-0.4594060942857143
25460,Sn3SbF9,-2.6085108099999994
25461,Sr(InAu)2,-0.5398457443333335
25462,LiB,-0.17234201125000048
25463,Y2FeSbO7,-2.867565388939393
25464,La2InPd2,-0.8405874349999998
25465,Sr3P6(N4O3)2,-1.883733116956521
25466,Cs3BO3,-2.136103333279967
25467,ZnPtF6,-2.034821689375
25468,RbIO3,-1.3725265675000002
25469,La2B3Cl,-1.0194266029166663
25470,ScZnPd2,-0.7885469112500001
25471,GdTlS2,-1.7419320098958329
25472,Yb(IO3)3,-1.2496016526923084
25473,Sr3CaCN4,-0.902408578611111
25474,Sr4PdO6,-2.5825519237878782
25475,Re2PCl13,-1.1393532011458332
25476,LaPS,-1.818396512986111
25477,TlAsPd5,-0.3547938483333338
25478,Th3In5,-0.3444695706250007
25479,RbGa3S5,-1.1445862328472218
25480,NaBiS2,-0.9936828732004317
25481,CaZrN2,-1.664115605000001
25482,AgBH2OF4,-2.1659369681481486
25483,NaLa9(Ge3O13)2,-3.1762084702750415
25484,ScRh3,-0.60684138375
25485,Dy2PdPt,-1.1154978937499997
25486,HfCrP,-0.8714944111111116
25487,BaNiN,-0.5890220566666657
25488,CsUCuS3,-1.4699533787176726
25489,CaFeBP2(HO5)2,-2.5175708482843135
25490,CaTm2(GeO3)4,-2.845467076228071
25491,KLuP2O7,-3.1643133224696958
25492,Mn(SbO2)2,-1.8522391850615765
25493,Cs3MnI5,-1.4256340435249042
25494,Mg3Si2H4O9,-2.591576657777778
25495,Pr3AsBr3,-1.843654493571428
25496,CaCuP,-0.8600553944444442
25497,K(FeAs)2,-0.2867273506000004
25498,HoNi2B2C,-0.5192332130555558
25499,Zr6Zn23Si,-0.2925132963333335
25500,U2RuC2,-0.23442726499999936
25501,MgMo2O7,-2.2257194412500008
25502,CsTaGeS5,-1.173060800444505
25503,Tl3SbS4,-0.5481942659375001
25504,Nd3Sn13Rh4,-0.569562251
25505,TiBe3,-0.20480089624999978
25506,V5SiB2,-0.6834169254166671
25507,TaVO4,-3.040961765833334
25508,InCl3,-1.4415949400000003
25509,Cs4Sn23,-0.16648678358237556
25510,Y6UO12,-3.9687269373684217
25511,NdHf2F11,-4.255013458035714
25512,LuAl3,-0.4014281574999998
25513,Zr3Sb4Pt3,-0.8754414075
25514,Y2Cr2C3,-0.3030093704761896
25515,BaGe3Pt,-0.632413065
25516,Ho2ZnRu,-0.3855806687500003
25517,SrNiGe,-0.514545735555556
25518,MnS,-0.7352551605280171
25519,UPt3,-0.7295225412500006
25520,DyGa2Co3,-0.37523793055555643
25521,EuGeS3,-1.359139804208334
25522,In7Ni3,-0.14181330800000042
25523,TmSiRu2C,-0.5935736213333328
25524,LiFeO2,-1.944939937708333
25525,Ba(H8O5)2,-1.3977362422222224
25526,K2Zn(Si2O5)2,-2.948572132264706
25527,Ba3NaN,-0.33616810531034497
25528,Sr4(NiO3)3,-2.080987469479167
25529,Ta2CS2,-1.1363240792499993
25530,MnAsRu,-0.21012219264367754
25531,KHS,-0.9416777037083328
25532,YbMnB4,-0.4863909703496165
25533,Pr2Fe2Si2C,-0.5582746757142851
25534,Yb(ReO4)3,-2.283591855624999
25535,TmGa4Ni,-0.5178528327777775
25536,Sm(SiRu)2,-0.8728125769999991
25537,Ba6Y(ReO6)3,-2.885995218095238
25538,Ta2PbO6,-3.0008273775000003
25539,Pu2BiAu,-0.40389011000000075
25540,KSm(SeO4)2,-2.0110856562656245
25541,GdInNi4,-0.3689254733333331
25542,La(SiAu)2,-0.6557825049999998
25543,Nd2(InSn)3,-0.4850833968749999
25544,RbSm(MoO4)2,-2.538013870833334
25545,Na3ThB24,-0.18498143320197005
25546,ScGeAu,-0.7224387733333332
25547,LaYbAg2,-0.37499976958333336
25548,LiZnPt2,-0.5867771083333335
25549,TbEr4Ni10(B2C)5,-0.5219005100555554
25550,Nd5P12Ru19,-0.8307554029166668
25551,Sr2TiMnO6,-3.0285093024597716
25552,Hf(Al2Fe)4,-0.4086140669230765
25553,Cd4MoW3O16,-1.9521115870833345
25554,TmAgSn,-0.5527489977777774
25555,K2LiB(PO4)2,-2.746129100190476
25556,Ho2TeO2,-3.335300846
25557,CeMgCd2,-0.22967196624999975
25558,Mg10B16Ir19,-0.4714390652592594
25559,K3B6ClO10,-2.7596000617
25560,Ce2US5,-2.1391228272656244
25561,Hg2Sb2O7,-1.468143012727272
25562,Hg3(TeCl)2,-0.6984472057142855
25563,CsBSe3,-0.8565171293257905
25564,Rb4Mo5(PO11)2,-2.2675143168686875
25565,CsGd2Cl7,-2.7046539255431044
25566,NaNdHg2,-0.37452579663793095
25567,AgAuS2,-0.19022820572916643
25568,TlB3O5,-2.585535929259259
25569,NaSm(PO3)4,-2.9049728524936143
25570,Mg(ScGa)2,-0.5084744669999999
25571,Sm2Au,-0.5784082600000003
25572,Ba2CoGe2O7,-2.493679139583334
25573,P2Rh,-0.6409315105555559
25574,Li3PrBi2,-0.6929537441666666
25575,Zr4Br4O,-1.7592415472222227
25576,Tl3Cd2I7,-0.8556694008333331
25577,Ca2Mg5Si8(O11F)2,-3.3556383993589747
25578,ErNiP,-1.220590671944444
25579,K2CrF6,-2.8874663890000005
25580,LuB12,-0.24636507384615286
25581,La(FeP3)4,-0.6184601779411761
25582,U2Cl5O2,-2.7038424033333337
25583,HfZrMo4,-0.15533267000000114
25584,TbCoC2,-0.3391551562499995
25585,BaPSe3,-1.294488843572917
25586,Na7In4P9O32,-2.5873157800165782
25587,CeSiRh2,-0.9966899824999995
25588,Ti2ReOs,-0.5670192341666667
25589,PrNiSb3,-0.7364923953333327
25590,Ce(PRu)2,-1.0242200103333332
25591,ThB2O5,-3.4143529451041665
25592,K3Nb2CuSe12,-1.0212700133124994
25593,MnBeIr2,-0.36192172073275763
25594,Yb(NO3)3,-1.2666212334615397
25595,DyZnNi,-0.46257191666666686
25596,LaBRh3,-0.6978310228333328
25597,Eu(AlZn)2,-0.3356606250000006
25598,KMoN2,-0.5749396840312508
25599,Ba2ScNbO6,-3.4769095014999998
25600,La12Ni6Pb,-0.3085594378947359
25601,Ce2FeRu3,-0.2787602725000002
25602,TcP4,-0.41040676766666595
25603,La3Nd3Al22,-0.38957551625000014
25604,Ba3GaSb3,-0.9869269246428577
25605,YbRhO3,-2.2818082915
25606,CaMoN3,-0.793337692
25607,AcH3,-0.6703053318750003
25608,Lu3S4,-2.289038421785714
25609,HoCu5,-0.1982439633333334
25610,LuH2ClO2,-2.433175975416667
25611,Yb2TlSn,-0.5741516820833334
25612,Eu3(AsS4)2,-1.3365929900000009
25613,Ba2ErNbO6,-3.4799317300000006
25614,YbMgAg,-0.32351486472222213
25615,Na2MnN2,-0.36221009370689644
25616,Na2CdO2,-1.471075946120689
25617,DyInPt,-0.9940867233333337
25618,K2Cd2Te3,-0.9210754750238097
25619,PClOF2,-2.419337556416667
25620,BCl(OF2)2,-1.9490051992708337
25621,K2In3CuSe6,-0.9829732927135412
25622,YbZn2,-0.3568063866666667
25623,Li2CuAs,-0.5188536416666665
25624,CeCuSb2,-0.75017154875
25625,Sr2GeO4,-2.912069137261905
25626,Sr2V2O7,-2.9158844487121214
25627,TbP,-1.6088253016666663
25628,Pr(PO3)3,-2.9858719273076932
25629,Pr4Si4N7ClO3,-2.1749610715789474
25630,LaNbTeO6,-2.8748844491666667
25631,LiCuSO4F,-1.9239974098697923
25632,Cs2AgF6,-2.1125817552809703
25633,HoNbRu2,-0.3241046099999991
25634,La(CuO2)2,-2.0444815949999997
25635,NdAlGe2O7,-2.8599527397727273
25636,Eu(Cu2As)2,-0.3732431964285721
25637,Ba4Al2O7,-3.186580600384615
25638,ZrAu3,-0.5027287824999993
25639,Tm6Al43W4,-0.2654286192452838
25640,Ba2FeO4,-2.392586399285714
25641,Rb2Hg(BSe)9,-0.6354640468377979
25642,U4SiNi7,-0.3221052966666669
25643,MgH12(BrO6)2,-1.1829264948148142
25644,YTl(WO4)2,-2.4992041137500003
25645,RbCaZrF7,-3.9572934875000003
25646,K7TaAs4,-0.4619216838333333
25647,NbVCr,-0.08914965333333431
25648,Pm2CuIr,-0.45755140624999946
25649,InSb(P2O7)2,-2.456214637416666
25650,LaLuS3,-2.442210836875
25651,LuB2C,-0.5632760770833336
25652,Yb11InSb9,-1.052919248571428
25653,DyNiBi,-0.6720167433333325
25654,Sm2AlNi2,-0.47505670599999944
25655,Tm2Fe2Si2C,-0.6830941547619044
25656,CsTaWO6,-2.7661694819923386
25657,ScTlRh2,-0.5818639820833331
25658,Rb3Zr6BeCl15,-2.090601014500001
25659,Ba2YFeO5,-2.93124445462963
25660,Ba5Re3O16,-2.6859131308333333
25661,Y3InC,-0.5324160460000001
25662,Tb5Si3,-0.6429119949999995
25663,NbAl2Ni9,-0.4093433841666669
25664,Mn(InS2)2,-0.8554606064901483
25665,CsSm(MoO4)2,-2.537607606494254
25666,Sr(AsO3)2,-2.233057519074074
25667,Ca(ZnAs)2,-0.6599641559999998
25668,TaZnRh2,-0.5393151575000008
25669,YbH18(BrO6)3,-1.1020821271875
25670,GdPO4,-3.457514203055555
25671,K2In2P3Se10,-0.7667227684963239
25672,LaPmTl2,-0.4068458097916663
25673,LaH9(SO6)2,-1.8101203149479168
25674,Dy2MgGe2,-0.7757677320000006
25675,Nd(PdO2)2,-1.9462281521428568
25676,Zr6NiTe2,-0.6772029600000001
25677,BaY2F8,-4.38479293030303
25678,Rb2MoAs2O9,-1.9570926885714286
25679,Na2TiSiO5,-2.9999614229374214
25680,PmHoRh2,-0.7834592193749996
25681,Rb2GaSb2,-0.49026197174999986
25682,Ga2Sn2S5,-0.8633228870138888
25683,BaGaBO3F2,-3.1638757927083327
25684,BaYCuS3,-1.9580735918402776
25685,K2Na3P3O10,-2.6448334653141767
25686,Er4MgNi,-0.20955464000000093
25687,Cs2NaScF6,-3.566625466241379
25688,BaTbMn2O5,-2.794234768429119
25689,U2PS,-1.3160030141145835
25690,Cs2ZrCl6,-2.3949891884291183
25691,CeSiRu,-0.7413794699999995
25692,RbEu(SO4)2,-2.3824885161458327
25693,Rb2NaTlBr6,-1.5317146869885057
25694,U(PO3)4,-2.837135855710785
25695,Sc5Ge3,-0.8434417731249999
25696,Y5(NiTe)2,-0.9104780731481491
25697,KRb2InF6,-3.0061636653
25698,YbCu2Ni3,-0.25657507833333365
25699,CsGa9Au5,-0.26164358169540236
25700,SmCuP2,-0.8471504604166675
25701,CsFeSiO4,-2.507647106490147
25702,Ni17(GeSe)4,-0.36353927437500033
25703,Pr3NiGe2,-0.7029252670833325
25704,NdCo5P3,-0.7778143125000009
25705,Be3N2,-1.218065926500001
25706,ReTc,-0.0034905274999985636
25707,Tm3(CuSn)4,-0.4721124336363635
25708,BaGe(S2O7)3,-1.9229044575431034
25709,Pr3(GaNi3)2,-0.42812707863636296
25710,CeAsRuO,-2.0547273375
25711,Cs2RbPbF6,-2.7562606218362062
25712,EuSi3Rh,-0.7031748570000005
25713,ZrSe,-1.5823217961718745
25714,CsH2F3,-2.3020124723635056
25715,RhS2,-0.699425855416667
25716,CuMoF6,-2.3880813806250005
25717,HfMnRh2,-0.6572043794827582
25718,LiCoPO4,-2.4089574159523823
25719,LaNi3B,-0.44166371783333247
25720,Th2CuTe6,-1.154603547777779
25721,LaSClO4,-2.702853515803572
25722,GaCuO2,-1.6750175293749994
25723,YCCl,-1.443414108888889
25724,Cu12As4S13,-0.43007132691810385
25725,Ho2MgGe2,-0.7677142860000004
25726,Li3In,-0.2404349050000003
25727,K2ReF8,-2.7873783241818177
25728,Dy2Au,-0.6328779150000005
25729,Ho3TaO7,-3.8759327272727275
25730,Y2Pd2Pb,-0.8402324656666664
25731,KCrP2O7,-2.6869430363333335
25732,Li2AgPd,-0.34014015333333303
25733,TmPS,-1.706439461041666
25734,BiRhS,-0.5615934143750003
25735,Ce(NiSn)2,-0.5016703259999993
25736,NpTe2,-0.9406281545833343
25737,Sm2HfS5,-2.208240855390625
25738,Cs2TeO3,-1.8311822501436783
25739,Cs2ErAgCl6,-2.219146648252873
25740,KNb(CuS2)2,-1.0857956113125002
25741,LiAl2Rh,-0.7078913733333341
25742,Lu2Si2O7,-3.7243125686363627
25743,Cs2YCl5,-2.5744000406285923
25744,Sb(S8I)3,-0.5145186017857151
25745,Ta2Bi4O11,-2.4075532985294115
25746,Cs4IrO4,-1.4510161379693487
25747,K2U3(IO5)4,-2.1689120867586213
25748,Ag2GePbS4,-0.5534278538541666
25749,K2CoI4,-1.0993308901428571
25750,CsTlBr4,-1.344508807710728
25751,Sm2(InSn)3,-0.4671356681249996
25752,ScSnRu2,-0.5073834325000002
25753,Na2GeS3,-1.0913574095797418
25754,NaAcAu2,-0.6084338572629311
25755,Ba2(Mo2S3)3,-1.312442978419117
25756,Na2Se2O7,-1.4947708034355403
25757,Ge2S3Br2,-0.8118981527678579
25758,KHf6CCl15,-2.1817911145869573
25759,Er2Ni2Sn,-0.6087899209999996
25760,Na3Y(Si2O5)3,-3.1700386214528735
25761,Zr14As9,-1.0430249919565215
25762,Sb2F7,-2.6812153472222224
25763,Cs2Cu2Si8O19,-2.869502143576195
25764,Li2ZnGeS4,-1.136530331770833
25765,Pm2RuAu,-0.4613176225000002
25766,B2W,-0.3329444861111111
25767,RbUN3O11,-1.7106847435937498
25768,Mg(AuF4)2,-2.0311345363636364
25769,Rb2O,-1.1331683733333329
25770,K2NaAlH6,-0.3424970752551726
25771,Yb5P7Pd9,-0.9535459815873016
25772,LuSi3Ni5,-0.6940989938888893
25773,SbH5(OF3)2,-1.9966649682142854
25774,YWN3,-1.207665744833332
25775,InAgO2,-1.3966343666666665
25776,TaSn2,-0.023997169166667238
25777,Li3CeSb2,-0.867883509166667
25778,NdB4,-0.5615438283333333
25779,Y2ReB6,-0.616071303703704
25780,Ca2Zn3Si3PbO12,-2.7808993000000006
25781,HfVSi,-0.7052365516666654
25782,CsAsF6,-2.770943628491379
25783,GaAgTe2,-0.5010239860416665
25784,YGa2Co3,-0.36585294277777713
25785,Yb2Sn,-0.645897525
25786,TlCr5Se8,-0.8040102294345226
25787,LiGeRhO4,-1.8917997747619049
25788,Sm6Mg(GeS7)2,-1.886411824076086
25789,ScBIr3,-0.6593382368333337
25790,ErCoB4,-0.6150035761111106
25791,Yb5Ag3,-0.34932851875000015
25792,PuGe3,-0.38145012875000006
25793,PrTiGe3,-0.6550132076666664
25794,CsCu3O2,-0.9714943813218392
25795,Dy3InN,-1.0689109450000003
25796,BaLa2ZnS5,-2.150793602291667
25797,Cs2WCl6,-1.8152753750957855
25798,YHg,-0.5162792708333335
25799,BaGaF5,-3.5224960067857145
25800,KNaMn(Si2O5)2,-2.968240625734281
25801,Zr8Bi13,-0.30391999392857166
25802,Y3Si5N9O,-1.7476281665277777
25803,CoGe2,-0.1531515541666669
25804,SbClO,-1.6059645833333336
25805,ErTl3,-0.1984066900000001
25806,LiBiS2,-0.9867309973958331
25807,Rb6Ge2O7,-1.9845426816666665
25808,TiNiSb,-0.5574829111111109
25809,TbB2Ru,-0.5881587958333325
25810,GdNbO4,-3.529169375833334
25811,Rb2Mo3Se3O16,-1.7623952655013024
25812,UFe2,-0.1017825650000006
25813,Ho4InIr,-0.5929682225000003
25814,ZnNi3B2,-0.28576131138888766
25815,KBi2,-0.3332015093333336
25816,Cd2AsO4F,-1.8538835812500003
25817,Eu(CoP)2,-0.9088921603333333
25818,La3MoO7,-3.3756856040909096
25819,LaHSe2O7,-1.8623432165624991
25820,PrIn2Ni9,-0.19677485041666642
25821,H4WNCl6,-1.063653703333334
25822,NaSr3GdP3O12F,-3.359007948764367
25823,Li2CaIn,-0.27840794666666646
25824,La6P17Pd6,-0.9230763316091962
25825,Ba3NaRuO6,-2.447166840595612
25826,Sr(ZnAs)2,-0.6687139033333335
25827,Sr2Sb2Se3O2,-1.828985873373843
25828,HoCdCu4,-0.24785509333333286
25829,Dy3GaS6,-2.0333392366250003
25830,TlPO4,-2.060220603611111
25831,Zn2SeCl2O3,-1.523422438886719
25832,AsSeI,-0.45491504911458236
25833,Tb6RuBr10,-1.8859801152941178
25834,LaAl3Pd2,-0.8495322008333327
25835,TaClF8,-2.5453316814999996
25836,NdAlNi,-0.5087834455555549
25837,Nd5Sn4,-0.7531081661111109
25838,TmSeF,-3.1394498788368064
25839,Bi(PO3)3,-2.4882202182692317
25840,CsHoCoSe3,-1.4101858508270475
25841,AgAs(S8F3)2,-1.0885233679861113
25842,Na3FePCO7,-2.280719221383731
25843,AlH10N2OF5,-1.703484004210526
25844,Zr6CCl14,-2.1726550033333334
25845,HoCrTeO6,-2.546042723333334
25846,Ba2Nd(CuO2)3,-2.2112099358333333
25847,Cs4Ti3S14,-1.3554888150225781
25848,Na5Cu(HO2)2,-1.4593936781465515
25849,Rb(In3Au2)2,-0.25128914977272776