,formula_pretty,formation_energy_per_atom
9601,NbGaFe2,-0.2578446818750004
9602,CeAu3,-0.5840313499999992
9603,Rb2SiO3,-2.634082175555556
9604,K2SnBr6,-1.5489410790000002
9605,DyCr2Si2C,-0.43670860499999975
9606,Rb2H6Pt,-0.38117737611111124
9607,Rb2Bi4O7,-1.6927905818269222
9608,Yb(Ga2Cu)4,-0.2298682146153849
9609,Y6NiBr10,-1.9034664697058825
9610,Cs2Pr10Co2I17,-1.4447257922858732
9611,Dy2SiO5,-3.8175112015625006
9612,Sr3La(NiO4)2,-2.4364462132142863
9613,NbHg3F6,-2.3435469729999996
9614,KThCuS3,-1.7230706578958344
9615,NaSmSe2,-1.924043756559806
9616,Nb6TlCl15,-1.6628081416287877
9617,Tb(GaFe)6,-0.30083715346153805
9618,AsS(ClF2)3,-1.8347624441477273
9619,CsNd(PO3)4,-2.9274340467369107
9620,CsP(OF)2,-2.892362723544062
9621,Ca,0.0
9622,SrCr2O4,-2.6681606445238097
9623,Yb2CdSb2,-0.8671135289999995
9624,KNb8O14,-2.7621435218695654
9625,KDy2F7,-4.21976895155
9626,ScInAg2,-0.3132434270833331
9627,CsTbMnSe3,-1.570111368815553
9628,Ta3Cr3N,-0.5035390939285723
9629,HoTe3,-1.2253597875000009
9630,LiNbF6,-3.396015133541667
9631,Zn35Cu17,-0.10122845576923058
9632,LiVZnO4,-2.29503732047619
9633,Ca2TaCrO6,-3.234234095499999
9634,KTiPSe5,-1.0556326832981773
9635,AcFeO3,-2.7715420175000007
9636,Na6Fe(SO4)4,-2.1399316632151972
9637,ZrPbF6,-3.5431965275
9638,ErAl4Ni,-0.5421772558333332
9639,Cu5Sn2Te7,-0.35514183285714296
9640,Rb(Nb3S4)2,-1.3977847835000006
9641,Na3AlF6,-3.394868508965517
9642,Sr6(RhO3)5,-2.1573064360576923
9643,Te2W,-0.38720455999999953
9644,TmZnRh2,-0.7183990991666667
9645,Pr2Zn17,-0.2684687373684208
9646,CaSmHg2,-0.54278875625
9647,LaAl2BRu2,-0.6422367240277774
9648,MnTlF4,-2.586192266044062
9649,Rb2VAgS4,-1.208322444270833
9650,BaAl2(GeO4)2,-2.9007188671153847
9651,U(IO4)2,-1.8209303972727275
9652,ErZn,-0.35425869499999996
9653,SmCdNi4,-0.31241874583333323
9654,Rb2NaBiCl6,-1.931809274155172
9655,Na2PtS2,-1.0613078948706893
9656,NpSO,-2.652552097291668
9657,Sm3Ir,-0.4966125887499997
9658,RbOs2O9,-1.4863215395833353
9659,UPt,-0.5440541999999997
9660,As3Pb5BrO12,-1.7281155446428567
9661,MgTaOs2,-0.18495810750000174
9662,KAsW2O9,-2.098363716769231
9663,Nd2Ge5Ir3,-0.7504432109999997
9664,Mg2Ni,-0.1731603077777777
9665,CsSrCl3,-2.66499759491954
9666,Sn4Ir,-0.20481942750000073
9667,ErNbO4,-3.5775294466666665
9668,CsNdTe2,-1.6125888569827587
9669,BaCd11,-0.16010878041666668
9670,EuGeAu,-0.7353557149999995
9671,Ba4Cu8P15,-0.47864762152777807
9672,AlI3,-0.955214190625
9673,Nb2Co3Ge,-0.31027039333333306
9674,TePtPb,-0.4863576949999994
9675,Na2Ho2B2TeO10,-2.858787908613929
9676,Li7(Eu2Bi3)2,-0.710951443137255
9677,RbP2WO8,-2.556704084930555
9678,La5Ge3O,-1.3334342105555552
9679,F2,0.0
9680,ThCl4,-2.653709859
9681,Tm2Fe14B,-0.12121237779411712
9682,Na4Zn3Se5,-1.0961588073271373
9683,BaSm2PdO5,-3.009463988888889
9684,Lu(SiRu)2,-0.867325783999999
9685,SiNi3Mo2,-0.3348184141666657
9686,Sm3Si2Cl5O6,-3.2213495921875004
9687,Rb4Sn21Hg2,-0.16236904500000074
9688,Rb8Zr6MnBr20,-1.8184345165123155
9689,V2Co2O7,-1.9969921579545449
9690,Nd3Sb5O12,-2.60633109025
9691,NdSm(MnGe)4,-0.4732684766724134
9692,Zr5GeSb3,-0.8552811516666657
9693,Er2Fe2Si2C,-0.6804284628571428
9694,LiMnPO4,-2.633738878871102
9695,ScRh2Pb,-0.5848243712499999
9696,Li2AcPb,-0.3062895222916664
9697,Dy2TeS2,-2.1433148812500002
9698,RbMoN2,-0.5780896317187505
9699,Dy(PO3)3,-3.021381608269232
9700,GdMg,-0.10621060500000024
9701,V9Ga4Fe3,-0.22445234437499995
9702,TlGaBr4,-1.2680435199305558
9703,RbLa(SeO4)2,-2.0358479758072914
9704,Sr(NdSe2)2,-2.205886635148809
9705,B2S3,-0.735364399101667
9706,Rb2Sn2H3N,-0.4236401503125
9707,Ba3TaN3Cl2,-1.8273401983333335
9708,Sc3GaC,-0.6723389844999985
9709,Ca(NiO2)2,-1.6620555242857142
9710,Mg3(BO3)2,-3.0366663284848485
9711,Sr2SmBiO6,-2.8116821613333336
9712,HfPd5,-0.6386600049999996
9713,Sm9(SbO)5,-2.391459268684212
9714,NiPH6NO5,-1.4598570855952389
9715,SrSi2,-0.31834684222222204
9716,Tc3Ni,-0.10441730124999893
9717,Dy4C5,-0.32409754333333435
9718,Nd3(P3Pd10)2,-0.7014821855172412
9719,DyBRh3,-0.7960196278333342
9720,LaZrTa3O11,-3.5856741165624992
9721,Tl2SnCl6,-1.4332890879629625
9722,MgSnN2,-0.533702746875
9723,Ta4CrSe8,-1.0707408622115389
9724,Ba3In2F12,-3.572179049117647
9725,RbScAsO4F,-2.836951260625
9726,Cs2KHoCl6,-2.5221512148862066
9727,GdBiPd,-0.9381372066666659
9728,RbMoPClO5,-2.358124190092593
9729,Ta4BTe8,-0.6733688780128211
9730,ThCo,-0.3570758525000004
9731,SrZrO3,-3.6622457558333337
9732,K(FeSb3)4,-0.22351589605882374
9733,ZrReSi,-0.7463463005555566
9734,LuGaRh2,-0.913918221874999
9735,Cu3H2(OF2)2,-1.5314474759090912
9736,LaTe2,-1.6826741637500007
9737,LiCa2CuN2,-0.7592156863888887
9738,Er5Ni2Bi,-0.46681430125000123
9739,Ba2NCl,-1.5443800187500005
9740,SbPOF8,-2.7361278696212126
9741,LiCr(CO3)2,-2.0940161663333328
9742,Tm2Zn17,-0.22325914438596478
9743,K2LuAgCl6,-2.148013711266666
9744,Zn3As2,-0.14802402206249993
9745,K2Nb4Fe2O13,-2.6830963252857147
9746,Re2Te5,-0.4674254914285718
9747,CeIn5Ir,-0.3824312307142854
9748,RbZrCdF7,-3.4285527445
9749,Gd3Al7Ag2,-0.4671071661111128
9750,EuBO3,-3.097512939833333
9751,Ag6Mo2ClO7F3,-1.3624665401315788
9752,Ce3(SiNi3)2,-0.583556887272726
9753,PrGa6,-0.3455386449999998
9754,NaHoCl4,-2.5209033894252872
9755,Gd2ZnPtO6,-2.6021208534999998
9756,Na2Ta4O11,-3.1890778198884373
9757,Zr2InNi2,-0.5016386404999998
9758,CsAg(NO3)2,-1.0626536144597707
9759,Ba8B5N10F,-1.3708688421180557
9760,CaH2,-0.6740133266666669
9761,Cs4PbI6,-1.5334336733385576
9762,K2RuNCl5O,-1.5031015803500005
9763,Eu3Sn13Ir4,-0.47097708824999956
9764,LiLa2MoO6,-3.0653852143333333
9765,KP(HO)2,-1.6268331202222228
9766,Sm2Mn2O7,-2.81708140598746
9767,KPr(PSe3)2,-1.095335734622917
9768,B4C,-0.10072184799999964
9769,NbIr,-0.5196198599999988
9770,Y11Cd45,-0.24192156711309515
9771,TbFeB4,-0.6005872636111107
9772,CsB2H5O6,-1.9676899379474548
9773,Tb6Al39Cr8,-0.28468176660377387
9774,Cs2Th(AsO4)2,-2.5203310242970827
9775,MgTiN2,-1.4929613658333327
9776,TaV(Cu3S4)2,-0.8634339434375002
9777,TlBi3F10,-2.689031567738095
9778,Bi2TeO2,-1.265789202
9779,Pr6Ge3S14,-1.7755215595108693
9780,ErGa4Ni,-0.5267406766666666
9781,TmB2Ir3,-0.6959660858333324
9782,CaInPd2,-0.6576064724999995
9783,Dy2C,-0.2758557799999994
9784,Ho3(AlNi3)2,-0.5779764704545456
9785,Zr3TlF15,-3.602776389649123
9786,Lu3Ga8Cu3,-0.4344213657142859
9787,NaB5(H2O5)2,-2.3670654811192535
9788,Na2MnPCO7,-2.3150332899473187
9789,LiCd,-0.2508932241666666
9790,Ce6Mg23P,-0.1251242797777773
9791,BaTi(PO4)2,-3.1907602899999996
9792,PrAl,-0.38647626749999997
9793,NiAsS,-0.4947283352083325
9794,ScPO4,-3.3546772938888885
9795,Y2CoTe2(SO7)2,-2.331613863789682
9796,Eu2SO6,-2.7262474459027777
9797,CaInHg2,-0.3889139775000001
9798,Pt(SCl4)2,-0.757894290568182
9799,RbFeBP2HO9,-2.468294652888888
9800,Nd2Si3Ag,-0.6411177277777776
9801,Gd(IO3)3,-1.4743499513461547
9802,Pr3Ir,-0.4259377718749997
9803,FeClO,-1.4929603216666656
9804,TlP2HO7,-2.127076703863636
9805,Zr6FeS2,-0.9050446537499997
9806,Lu6GaNi2,-0.41193604805555534
9807,NdAlNi4,-0.4693917750000007
9808,RbP(HO2)2,-2.1890477719791663
9809,EuSe,-2.261247043671876
9810,Ho2TlAg,-0.34232599249999973
9811,Na4AlP2HO9,-2.632138403477857
9812,VPO5,-2.5000611794047622
9813,La5Pb3Cl,-0.9846440172222215
9814,Lu2CoGe2,-0.7475935020000002
9815,CsHS2O7,-1.8673082526528204
9816,RbNa3Li12Ti4O16,-2.6588071483469022
9817,Fe3Mo6RhN2,-0.23501602791666562
9818,Ce(SnPd)2,-0.7216156189999999
9819,La4Ga2O9,-3.406997886833334
9820,NdMgAu,-0.6505992655555551
9821,TaAlO4,-3.4020875733333327
9822,BaNp(HO2)3,-2.44932409125
9823,La21Mn8Sb7C12,-0.635701637259339
9824,CsVI3,-1.1427976415862076
9825,SrNb8O14,-2.8543190459420287
9826,P2PtO7,-2.0807157966666665
9827,Na2BSO4F3,-2.6190495870813733
9828,TlBi(WO4)2,-1.9798646361111107
9829,DyZn12,-0.18460827230769267
9830,Ho6GaCo2,-0.3013642791666666
9831,NaTl2GaF6,-2.655263875571839
9832,Tb4(SiS4)3,-1.7324084339473684
9833,Hg4Pb2N6O19,-0.9197420058064515
9834,Dy2(MoO4)3,-2.6578853117647063
9835,Y2Se3,-2.1792660050729156
9836,CsCa(PO3)3,-2.9034833298522176
9837,RbLuS2,-2.0859895459375
9838,NbH8N2OF5,-1.742474783823529
9839,Ba2YAg5S6,-1.2481051041964284
9840,ScNi2Sn,-0.5516731574999998
9841,Hg3(SeF)2,-1.0407901178124999
9842,GaCuRh2,-0.3730370868749997
9843,NbAl3,-0.4286461524999998
9844,RbAgCl3,-1.4208789488333333
9845,LiAl2Ni,-0.47040982333333314
9846,LiMgAs,-0.7444915061111109
9847,ErAu3,-0.7229041250000003
9848,Na4Ga3Si3BrO12,-2.6627979898350818
9849,Ce2Al3Ge4,-0.46794453833333294
9850,Tl2TeI6,-0.6435767068518518
9851,YNi5,-0.31870939944444504
9852,Ca3Si2Ni3,-0.5080504693750001
9853,LaH4S2NO8,-1.930510638203125
9854,SiH10(O2F3)2,-1.9397619902380954
9855,Y2CI2,-1.1368958286666662
9856,V2CoO4,-2.227433197142857
9857,Zr2S,-1.2645997577083337
9858,Ba6Nd2Y(MoO6)3,-3.0103370365555557
9859,K4Ba(VS4)2,-1.5375515954666668
9860,HfMgAu2,-0.5771141599999998
9861,Cs2U6Pd4S17,-1.452167707896105
9862,Na2ZnGaF7,-2.907731636645768
9863,La2Zr2O7,-3.9093342249999994
9864,BH2OF3,-2.389556285952381
9865,ErHfF7,-4.3241126663888885
9866,Cs2SnS14,-0.7463170624771803
9867,Yb4Ni13C4,-0.30264708714285654
9868,Ce2CN3Cl,-1.5331877664285705
9869,La2Bi2O7,-2.5957214972727267
9870,PrTeAs,-1.3635261358333335
9871,Ta8NiSe8,-0.8703259674264714
9872,TlSbAu,-0.1609028048611112
9873,NiH,-0.12477560750000016
9874,Fe2Ni(PO4)2,-2.2412824712820503
9875,Sr6B(PO4)5,-3.2503066539322925
9876,ScRu,-0.5430774349999989
9877,NaNdFeWO6,-2.549987707155173
9878,Ce4MnSe6O,-2.1455225343327946
9879,AuBrF6,-1.2983120046875003
9880,MgAl2O4,-3.3743142292857136
9881,RbLi6B2O6F,-2.6081977548958335
9882,LuZnRh,-0.7626693849999994
9883,AgF,-1.2340413595833333
9884,SbF5,-2.575310355833333
9885,Y2(Ga3Rh)3,-0.7134489318452378
9886,TcP3,-0.44443333750000047
9887,Na5(WO3)14,-2.200365060864896
9888,KSmH4(N2O7)2,-1.4221688179375
9889,Sr2Ta2O7,-3.50164014030303
9890,Sb2(PSe3)3,-0.43649911561383903
9891,Mn(SbO3)2,-1.9790918681034488
9892,Pm2CdGa,-0.43726401312499963
9893,PrBe13,-0.15310148642857208
9894,NaNd(SO4)2,-2.52154724481681
9895,VI3,-0.662163445
9896,Nd4CdPd,-0.39656992666666646
9897,Gd2MgRu,-0.16446229875000107
9898,GaH15N5Cl3,-0.7188225517708341
9899,Sb24(Cl7F17)5,-2.190600670989583
9900,PbCN2,-0.06425045374999971
9901,NdInPt,-0.9494988877777778
9902,KMg3V3CuO12,-2.5001020228999997
9903,Rb3Nb2S11,-1.180427352773437
9904,Ti2FeIr,-0.6677195991666665
9905,KAl(SO4)2,-2.326692076604166
9906,La7Ni16,-0.34516971499999977
9907,Sr2H6Os,-0.6906557764814809
9908,TaTe2,-0.6441666062962962
9909,NdZnIn,-0.4497874466666669
9910,RbMnO4,-1.4698404267385072
9911,CaSbPd,-0.933669215833333
9912,TbInPt,-0.9913032922222224
9913,NaVAsO5,-2.1619858939439656
9914,Ba3Y(BO3)3,-3.2954069503645833
9915,U(SiRh)2,-0.8083409880000005
9916,LuCdAg2,-0.2733136883333329
9917,Ba2ScTaO6,-3.5940941235000006
9918,Rb3Ti3Te11,-0.9940952213235285
9919,U8FeSe17,-1.3803080007632218
9920,Cs3Pr5(PS4)6,-1.4174128495735023
9921,HoLuTl2,-0.29138926416666644
9922,Ca(SiNi)2,-0.6166821200000001
9923,ZrGa2Ni,-0.5882975369999996
9924,K2MnP2O7,-2.637485575883142
9925,CsSnS3,-1.0052145624612074
9926,Cd2AgRh,-0.08362896666666675
9927,CeAsRh,-1.1435988016666663
9928,Nd2FeNiO6,-2.6136108340000006
9929,K2MoAs2O9,-1.9610639884642862
9930,Mn2SiRu,-0.3928779177155164
9931,Nd3Si6N11,-1.4892338219999999
9932,In2Co3S2,-0.4634054301785712
9933,Pd(SCl3)2,-0.7008422806944444
9934,Cr(PO3)3,-2.620182518846155
9935,NaVO2,-2.3456428628879316
9936,KPr6OsI10,-1.445003501694445
9937,NdPS4,-1.3989450611805558
9938,Ho6InCo2,-0.27475378222222147
9939,ErInNi,-0.5034477599999995
9940,ErH2,-0.8055761933333342
9941,SmCrO3,-3.1710719595000008
9942,Rb3SnP3Se11,-0.7925277693489576
9943,CeCu2,-0.17492268833333333
9944,Zr4Ni(PO4)6,-3.0825651727142858
9945,PH4N(OF)2,-1.7339179970833327
9946,Th(BOs)4,-0.4413192035185176
9947,Sc5(NiTe)2,-0.8702734791666669
9948,MoBr3O,-1.1512701790000002
9949,SmIO,-3.0590447799999994
9950,BaLiCrF6,-3.4938399889814815
9951,La3(BN2)2,-1.4961494792592598
9952,KAuSe2,-0.8223259581718749
9953,PmSe,-2.063147849921875
9954,LaNd(CoO3)2,-2.5725161979999998
9955,NaAg3S2,-0.5149670813002872
9956,Ca(FeP)2,-0.8438887993333324
9957,CsAuF4,-2.057123041321839
9958,Mn4Fe8Si3Ge,-0.2782530891702599
9959,Dy6Al2SiS14,-1.9799880614673915
9960,Cu3AsS4,-0.44661870906250023
9961,DyZn3,-0.36544630750000007
9962,Pm2O3,-3.836100897499999
9963,Rb2As2Pt,-0.48725467299999964
9964,K30Ga9Sb19,-0.5034346882327587
9965,Er(FeSn)6,-0.14331156865384614
9966,YbCoC2,-0.19577468875000026
9967,HfCo2,-0.36919747833333477
9968,Er3SbO7,-3.447818836818181
9969,Cs2O,-1.1884128869540227
9970,ErHg,-0.4849864075000001
9971,Ce(SeO3)2,-2.1391389749652783
9972,LiErGe,-0.7107592472222216
9973,KCr12Si8BrO28,-2.6223444720099987
9974,DyZnPO,-2.0529492295833336
9975,YbPaPt2,-0.947249750000001
9976,UGePt,-0.6273803799999994
9977,Li2PrTl,-0.2644931062500002
9978,Eu(FeP)2,-0.9029215643333345
9979,Th2(InSn)3,-0.3999024481250002
9980,HoCdAg2,-0.2849690408333334
9981,Sr2MgMoO6,-2.8643199643333324
9982,RbTaPS6,-1.0883616853009268
9983,CsAu(IO3)4,-0.9184746426628357
9984,ScAl2,-0.4868887249999994
9985,SrPrMgRuO6,-2.772565764666667
9986,Pm2ZnRh,-0.4993493412499994
9987,Cs2HoCl5,-2.5780656126077584
9988,AgO,-0.445126380833333
9989,BaBiNO5,-1.8135654737499998
9990,Eu(Ga4Rh)2,-0.5222933804545452
9991,K3Ta3Si2O13,-3.1591988573333345
9992,Tb(Zn10Fe)2,-0.13425579956521716
9993,Ac,0.0
9994,KMn8O16,-1.9004877254579322
9995,Na3Fe2P2O8F3,-2.574263830003992
9996,Nd2Ni5B4,-0.46876478333333244
9997,CdCo3(PO3)8,-2.400782785601852
9998,NdSi2Ni,-0.8239170312499997
9999,K3TlAu5,-0.29538284414814814
10000,Ho2IrPd,-0.9383943175000002
10001,Pr(ZnAs)3,-0.5404731164285715
10002,TmBi2IO4,-2.337519458958334
10003,TiRh3,-0.6179574708333337
10004,BaCuTe2O7,-1.812995180454546
10005,YSn2,-0.6100994105555557
10006,RbAg3Te2,-0.5277825304166672
10007,Ce5Ge3C,-0.6073130922222213
10008,CeRu2,-0.2833998766666663
10009,Li5AuO4,-1.8052917166666667
10010,K6Cu(SiO4)2,-2.3185394851764705
10011,Sm6Ge3S14,-1.766065064293478
10012,Lu4MgNi,-0.22247610708333335
10013,ZnAgPO4,-2.0296409771428574
10014,K3EuV2O8,-2.564133215642857
10015,PmInRh2,-0.634347359375
10016,CaDyHg2,-0.5314396000000001
10017,KZrSnF7,-3.44603715505
10018,Yb2AgAu,-0.6879668616666663
10019,Tm8Ga3Co,-0.42381504256944424
10020,Nb3SnS6,-1.3298496918750011
10021,YSnAu,-0.8307911438888892
10022,U3Co7B2,-0.3637629965277777
10023,HoGeRh,-0.9848835791666666
10024,LuCoC,-0.36467214333333214
10025,NaEuF4,-3.6436449863697313
10026,Nd3IrO7,-3.002845674545455
10027,Lu2ZnCu,-0.32313599999999987
10028,Na2TlBi,-0.2863724016091953
10029,K2RbSmV2O8,-2.708234794178572
10030,Ce(Sb3Ru)4,-0.47634521029411886
10031,K6CdO4,-1.351698099363636
10032,NaTiCu3Se4,-0.8931739421400064
10033,CeAl3Ni2,-0.6088450041666663
10034,NpAl4,-0.1035579357500005
10035,NdSn3Ru,-0.4773187927500004
10036,PrUN2,-1.5416866587500007
10037,Si2Hg6O7,-1.5820804336666663
10038,Zr7Cu10,-0.15831454000000048
10039,CoMoH2SeO7,-1.5135056835286456
10040,Zn2CuAu,-0.15582695250000045
10041,Hf2Cr4Si5,-0.5125370090909072
10042,KSrCeSbO6,-2.8558863797166674
10043,CaSiNi2,-0.5268188912499996
10044,Tm5Pt4,-1.2134793287037031
10045,HfCoGe,-0.6718754175000008
10046,Ba3LuIr2O9,-2.5654419356666684
10047,Ca2NbFeO6,-2.941696768
10048,K4(TiTe3)3,-1.0786434987187503
10049,Rb2Ga2B2O7,-2.5226564421794864
10050,KEu2Cl5,-2.6660189422500005
10051,Ga2Te5,-0.5410707707142858
10052,CaTiCr(PO4)3,-2.987153812129629
10053,KSb3O5,-1.841463320333334
10054,Er2Te5O13,-2.2010938115000003
10055,Na2Cd3(P2O7)2,-2.4288986894102953
10056,Ba2UCdO6,-3.110068527
10057,K3La2(NO3)9,-1.4879408899756095
10058,Er2B6Os,-0.6879894558333335
10059,Na3TaF8,-3.3626280928879315
10060,H7N2F,-0.8122083859999989
10061,Sb4H2SO10,-1.7105232373897064
10062,NaB(SO4)2,-2.103922024747366
10063,Ag3Ge5P6,-0.028608521785713492
10064,Eu2C(NCl)2,-1.788384577142858
10065,CeErIn2,-0.3978203987500004
10066,ErSi2Ni,-0.8239766350000011
10067,Ca(NO3)2,-1.5229045655555558
10068,UAsS,-1.301116251041666
10069,Ba(AgSn)2,-0.3983960766666666
10070,Tb4CuPt3,-1.0324440874999992
10071,NaCa2Al4H8C4ClO20,-2.3033317196637926
10072,Y2P7Rh12,-0.9217248288888887
10073,TmAlRh,-0.9495310572222225
10074,MgH6(NCl)2,-1.0066260763636372
10075,Ca2Hg,-0.4013747783333332
10076,Li4ZrF8,-3.5250389621794866
10077,Ba(MgSn)2,-0.4839942085000001
10078,TaCuS3,-1.0675226783749998
10079,Ca3Sc2(GeO4)3,-3.0872710402499997
10080,Sb9Se4F39,-2.5103958605649037
10081,Ca3InAu3,-0.7521677500000001
10082,Er3(Si3Pd10)2,-0.8346029041379313
10083,Gd6CoBr10,-1.9163711570588242
10084,AlBP2H5NO9,-2.188076238728071
10085,DyBi2IO4,-2.3272039668750013
10086,MgSnAu,-0.4440710249999995
10087,AgSO4,-1.3725033539236111
10088,Sm3CuSiSe7,-1.6191305701171868
10089,RbBr3,-1.0146674949999999
10090,Nb2PdS5,-1.1775609544531251
10091,RbRe3Br10,-0.9596076469642861
10092,Mg149Re,-0.01432409876666668
10093,Li2FeF6,-2.6336651901851855
10094,Cs2NpBr6,-1.9703655477346744
10095,Cs2Mg2(MoO4)3,-2.3477487080716877
10096,Rb2TlInF6,-2.761560676333333
10097,CsLu(TaBr3)6,-1.4901632208819633
10098,Rb2TeO3,-1.8322971033333335
10099,Sb2H4AuF16,-2.137211627826087
10100,Ba5Al2In2IrClO13,-2.699923472083334
10101,CeNi5,-0.344781860833334
10102,CaPb3,-0.2903331074999995
10103,Rb4H6C2O9,-1.750586941666667
10104,CsGdHgSe3,-1.4752861316603803
10105,SrAlSi,-0.37533015555555593
10106,Zn2NiRh,-0.34063196500000004
10107,K6Zr3H8(OF)12,-2.443084271597561
10108,Rb2Hg3(GeS4)2,-0.7985433416666666
10109,ErVO3,-3.310515877500001
10110,NaHf2VF11,-3.827939176936782
10111,Li7(Mo3Se4)4,-0.9565693254523808
10112,LiLaBi2,-0.748905718333333
10113,Ba3V4O13,-2.82313805
10114,Nb3Co4B7,-0.5866002077976182
10115,NaLa(MoO4)2,-2.5358393101293104
10116,OsO2,-1.343401261666667
10117,EuCdSn,-0.5483141383333331
10118,TmNiSn,-0.6631306472222214
10119,YbMgAu,-0.7156661349999996
10120,Co3Mo,-0.05267117750000061
10121,TmTl,-0.2782260449999998
10122,CeS2,-2.057469522916667
10123,Ba2HoReO6,-3.0522956095
10124,CaTiF6,-3.9734046210416665
10125,Ce2USe5,-1.9045686536523432
10126,Cs3B6H12S4Br,-0.6970798620689656
10127,TaCl4F,-2.2201790829166668
10128,Pr2Re3Si5,-0.5138541712499987
10129,Rb2CuF4,-2.512376775
10130,PPd6,-0.3137372504761901
10131,Eu3(SiAs2)2,-0.8369911697222219
10132,Th(SiNi)2,-0.8276190159999992
10133,PmPd2Pb,-0.6587898943749995
10134,YbHfF7,-3.867932640277778
10135,PbS2,-0.6225647270833328
10136,Y8Te3,-0.8454008089393938
10137,Ho(Al2Cu)4,-0.30273530846153834
10138,ZnSe,-0.9515323261718751
10139,Ni3AgP3(HO6)2,-1.9728091019841272
10140,Eu(PO3)3,-2.8626838269230777
10141,Na2MgGeO4,-2.382190906012931
10142,Ba3Y2WO9,-3.2523355458888887
10143,UFe2SiC,-0.3546469260000009
10144,EuDyCuS3,-1.9258126203125
10145,Zr3N2O3,-2.9051480100000013
10146,NbBr5,-1.318191038541667
10147,Ba2EuRuO6,-2.623451154
10148,K3Ta2Cu3S8,-1.228907669312501
10149,Ba(GeAs)2,-0.5016569724999996
10150,CaP6(HN3)4,-0.7395670263043465
10151,Tm2NiRu,-0.48129033208333283
10152,TaTl3Se4,-0.8356195836718747
10153,Sb2Br9,-0.7952818943181819
10154,LuInPd2,-0.8591769724999994
10155,Ba2CdP4(H3O8)2,-2.396104089597701
10156,K2TiOF4,-3.4195844289791664
10157,AlTlI4,-0.9726696447222221
10158,Sr2CoMoO6,-2.4784048488333346
10159,WNCl3,-1.1885804394999995
10160,BeVRu2,-0.35140093624999924
10161,NaAlGeO4,-2.642590690816913
10162,Yb(MnGe)6,-0.284124950583554
10163,Ho2(Ga3Ru)3,-0.5346475801785715
10164,Ac2InGa,-0.396491728125
10165,NaPO3,-2.6414345276436793
10166,LuNi2B2C,-0.5192416763888884
10167,Ba6Na2V2Ru2O17,-2.60195540665874
10168,Hf4Co4Si7,-0.7565147793333333
10169,MoOF4,-2.507310336458334
10170,La2AlGe,-0.65480120375
10171,PrCo3P2,-0.8327391716666676
10172,Ba3Ta6Fe2O21,-3.177169505000001
10173,CeY(GaPd2)2,-0.8553698095833324
10174,LiMnPO4F,-2.627417617137213
10175,KPPbS4,-0.9589195834047614
10176,GdH2,-0.7797756100000003
10177,CsNd2CuSe4,-1.728576711538254
10178,Yb5As3,-1.1261938649999998
10179,Li(TmGe)4,-0.8072580116666662
10180,KLiSe,-1.3706448312256942
10181,Ba3CaNb2O9,-3.303184017000001
10182,LiGdAu2,-0.6859756708333329
10183,La5RuPb3,-0.5346609844444445
10184,Nb3Cl5O2,-2.0803910902500014
10185,Ho3Pd4,-0.954943138571428
10186,Eu(GaSb)2,-0.5680814160000004
10187,VNi2,-0.24225136666666577
10188,BaDyCuTe3,-1.4494345983333332
10189,KO2,-0.9871571409999996
10190,Dy2Pt,-0.9395473275000003
10191,EuCdHg2,-0.3918319912500001
10192,PrCu2,-0.19300502666666652