,formula_pretty,formation_energy_per_atom
19471,Ce(P3Ru)4,-0.684143455
19472,Ba3YIr2O9,-2.530170425777778
19473,Na6Al3Fe3(TeO6)4,-2.073694616607759
19474,Y2MoO6,-3.163260913703703
19475,LiSnPd2,-0.662821757083333
19476,Sr6Al12Bi2O27,-3.284083854148936
19477,Na4Eu2SiP4,-0.6711678299582023
19478,MgMoO4,-2.411237245416667
19479,NaY(Pd3O4)2,-1.436276228951149
19480,VZnHPbO5,-1.9364955705555549
19481,IO2F,-1.1360069243749997
19482,Ho2Fe14B,-0.11350331877450932
19483,KThP3O10,-3.0828479110333338
19484,Ag2Hg2(TeO4)3,-1.1067602167543855
19485,Pr2C(NO)2,-2.350124210000001
19486,Dy4Fe28BC,-0.08974810218137297
19487,KGdH2S2O9,-2.2826025427833345
19488,HfTc2,-0.36208861416666593
19489,AuSO4,-1.313453862812499
19490,Ba(GaH)2,-0.5030023510000003
19491,FeP2,-0.5367611155555553
19492,GeTe,-0.3032218774999995
19493,SrZnO2,-2.4355156754166667
19494,TaF5,-3.5737270587500007
19495,Dy2Mn(GeO3)4,-2.665431024101633
19496,SmMoO4F,-2.9810409364285713
19497,Cs2AgSbCl6,-1.6546834622528734
19498,Ca2GeN2,-0.9499561270000001
19499,TmBRh3,-0.8236265151666657
19500,Dy2MoO6,-3.1901216149999994
19501,Sm(ZnP)3,-0.6022006064285718
19502,Zr2Ga,-0.46484443416666704
19503,Na6ZnS4,-1.2238336124373042
19504,SnPHO4,-2.1483341408333323
19505,Lu5Ge3,-0.7947617212499996
19506,Nd3Si2S8Br,-1.8100111948214297
19507,HfNi2Sb,-0.57615807
19508,TaFeGe,-0.3100759058333331
19509,Ba4Na(RuO4)3,-2.2623205605775865
19510,ThSbTe,-1.247599636666667
19511,RbBF4,-3.309778116111111
19512,InTe,-0.49985106499999965
19513,CeAl3Cu,-0.41965134699999995
19514,PuNi5,-0.20706633000000116
19515,Ba2ScCuO4,-2.879963581875
19516,Cu2GeS3,-0.5715141940625005
19517,Yb8In3,-0.3150621911363636
19518,RbSc(WO4)2,-2.6036526318750006
19519,Yb2CuRh,-0.45915811999999967
19520,K2NaAl3F12,-3.6459934587528733
19521,Ba2ZnS3,-1.912715911979167
19522,PuUC2,-0.09715299249999987
19523,AcInHg2,-0.4363427456250002
19524,AlH5(SeO4)2,-1.6002942065429684
19525,FePS,-0.7002151088194447
19526,Mn2O3,-2.013919843547413
19527,Rb2Te,-1.1377745350000004
19528,Al4CdO7,-3.097375049583333
19529,Rb2Sn4S9,-0.9075999835416676
19530,CuS2,-0.4326742387500004
19531,Be(CoO2)2,-1.7971893228571432
19532,Nd3Ni2Sn7,-0.5846304937499998
19533,HoAsS,-1.7130156643749999
19534,ErCuTe2ClO6,-2.001536016590909
19535,Na3Nd(BO3)2,-2.804380174624042
19536,Li3NbO4,-2.7170967846874996
19537,Rb2Cd(PSe3)2,-0.8580746259753785
19538,Y2Fe2O7,-2.5915399516666664
19539,ScAl3,-0.4549311287499993
19540,XeF6,-0.7956069820535718
19541,Ti3Pd,-0.34653153749999976
19542,VBiO4,-2.151046075833333
19543,Ba2CaMn2CuF14,-3.303766974543104
19544,CaFe3(P2O7)2,-2.588326186060606
19545,Eu2SnS4,-1.672911288214286
19546,LaScSb,-0.9445705316666668
19547,ErCo3Si2,-0.7068951633333332
19548,BeCo2Ge,-0.30796471000000025
19549,HoSbO4,-2.872253288749999
19550,AlCuSnSe4,-0.7727851691964288
19551,Ho3B7W,-0.605591566742424
19552,ThSnPt,-1.072258008333333
19553,TlPb2Cl5,-1.514840746041667
19554,Rb(PIr)2,-0.6379525488333343
19555,CePd3,-0.8322036412499996
19556,Ce3Si11Pt23,-0.8773567605405403
19557,Ca2Zn3Ga,-0.3708384662500001
19558,Eu2MgTl,-0.2595918008333342
19559,Cd2PtRh,-0.1911811499999998
19560,Hg3As8(S4Br3)2,-0.5465712179999997
19561,NaAl2H18S4N4ClO18,-1.5222291814385767
19562,Li2SiF6,-3.407620376851852
19563,K2CaMg5Si8(HO12)2,-3.0694315458571433
19564,Mn3TeO6,-1.9202530753793112
19565,CuPb5Se4(ClO3)4,-1.4259520568990376
19566,Ba4Sb4Se11,-1.306428091751645
19567,Tb2ZnAg,-0.34072402666666646
19568,LaZr2F11,-4.172745535535714
19569,K4Ba2B14H16O33,-2.3393750594251204
19570,Ag3P11,-0.025214556904761105
19571,Co2(SnTe)3,-0.4281958256250009
19572,Ba2TiO4,-3.3990923883333335
19573,Cd(PO3)2,-2.440489054768519
19574,CsTiF4,-3.485600427294061
19575,Rb5In(MoO4)4,-2.1463506679807702
19576,TlBiS2,-0.6650548173958333
19577,BaSnF4,-3.379663668333334
19578,NbCrP,-0.7147329344444439
19579,TiMnAs,-0.6537384020881218
19580,Yb2AgPt,-0.7897562416666668
19581,NaMnPCO7,-2.18224641207419
19582,SrZnSn,-0.5193200105555554
19583,TePdSe,-0.6063470841145833
19584,Co2SiO4,-2.136392525357143
19585,K3DyF6,-3.6059444434
19586,Y2Fe14B,-0.1085508347058839
19587,Sr2VN3,-1.3037249018055543
19588,YPbAu,-0.6880084822222224
19589,TaTiRe2,-0.45187703833333437
19590,Zr3(Cu2Si3)2,-0.49015035076923125
19591,Cs4ZrO4,-2.278769073247126
19592,Nb3Te8I7O,-0.8840464830263154
19593,MnCu2GeS4,-0.6509170988038795
19594,LaHf2F11,-4.27741981625
19595,YZnPd,-0.754097765555556
19596,Ho9Sb5CO4,-2.1073194384210523
19597,SrZnP2O7,-2.8464510207575753
19598,Tl2Sn(AsS3)2,-0.5787308709469698
19599,PaZnTc2,-0.09795148750000049
19600,Ca3BiN,-1.0860560769999998
19601,Ba2GdPaO6,-3.706075260000001
19602,Cs2CeCl6,-2.45650855454023
19603,Ba2ErSbO6,-3.1087291410000004
19604,Yb10Ni28As19,-0.6781707778070172
19605,Er2Au,-0.6512489508333333
19606,TmB12,-0.2515251789743583
19607,SeBr4,-0.6701692287187502
19608,NaMoPO6,-2.3475893634594516
19609,Y2Ni12As7,-0.5356948765873006
19610,Sc2Si2Pt3,-1.1908615335714288
19611,Ca2Fe2O5,-2.4561930836111117
19612,Ba10P6SO24,-3.260695856417683
19613,RbMgAlF6,-3.7296810969444447
19614,Ba(Cr5S8)2,-1.1331171451851854
19615,KCa9Mg(PO4)7,-3.2793379747028983
19616,CsRb2Au7,-0.2730351632931033
19617,Dy5(In2Ni)2,-0.5207527977272729
19618,HgAsPd5,-0.30475633142857106
19619,Dy2Zn17,-0.2441347447368423
19620,SmBr3,-2.295574830625
19621,CuAs2Pb8Cl5O9,-1.5590083598000006
19622,Co(ReO4)2,-2.038338094090909
19623,HoI3,-1.6451244487500003
19624,Sr10P6SO24,-3.3006817614583333
19625,CeGaIr,-0.8514132866666664
19626,Dy4Ni13C4,-0.3470968261904767
19627,Zn2TeCl2O3,-1.6232527023437502
19628,Ho2Fe12P7,-0.7098153725396825
19629,Rb2Be2O3,-2.377723397857143
19630,LuGa3,-0.4999528406249998
19631,NdRe3(H2O5)3,-2.0361400647000005
19632,Ti3Zn2O8,-2.979183314423077
19633,La(HO)3,-2.237467295714286
19634,CeSnAu,-0.7403186533333331
19635,DyPdPb,-0.7254742499999993
19636,Sr2LiReO6,-2.750288353166667
19637,ErFe2,-0.12088466166666716
19638,Ta2Tl2P7HO24,-2.6391748181944448
19639,YbZnGa3,-0.41225496849999954
19640,Yb3(Si3Pd10)2,-0.7890965020689646
19641,MgWO4,-2.5673527400000005
19642,Cs8Ta6O19,-2.937594226922675
19643,Ho2ReC2,-0.43550362200000026
19644,YbGaCu4,-0.28086566958333314
19645,Ho2Te4O11,-2.3079173961764705
19646,RbDy(WO4)2,-2.6569926650000006
19647,Y2TeO2,-3.2920824466666665
19648,HoCo3P2,-0.9430419497222218
19649,La3(GeRh)2,-0.8852495100000003
19650,BaAsPd,-0.930454381666666
19651,Pd3Se2S,-0.5791038152604161
19652,KInO2,-1.9181423932500001
19653,ThI4,-1.5396167125000002
19654,BaCdAsF,-1.9610200668750002
19655,La6Cr(SiS7)2,-1.999965832336957
19656,Be3Zn4Si3SO12,-2.6890770403532622
19657,Tb2B4C,-0.5508480352380951
19658,SrRh2,-0.2646996638888896
19659,SmSb2Au,-0.7844279112499999
19660,LiY2Ru,-0.26616600791666656
19661,Pd(XeF8)2,-0.994026663157895
19662,Ge(TeO3)2,-1.6970901055555554
19663,YNiBC,-0.5149480664583335
19664,Nd2BiN,-1.2456814850000004
19665,NaInP2O7,-2.5836949300653074
19666,NaSn2F5,-2.6965015511314663
19667,AlNiAg2F7,-2.4956094132575752
19668,U(Al5Ru)2,-0.41253805923077036
19669,Ga10GePb3O20,-2.146252935588236
19670,TbAu3,-0.7145287587499993
19671,K2ZrS4,-1.5619510163928578
19672,CsZn2P2HO8,-2.374337954256979
19673,InRh,-0.41382653999999963
19674,Pm2NiPt,-0.6627567987499994
19675,CoGeTe,-0.36601590124999994
19676,KTm(CO3)2,-2.581633291466666
19677,Mg3BH2O5F,-2.7184784468055554
19678,NaTh2(PO4)3,-3.337654078975097
19679,LiTbSe2,-1.9285172795052081
19680,La3RuI3,-1.2929949971428571
19681,DyBi2ClO4,-2.46823553625
19682,GdSi,-0.7704747699999999
19683,Pr3In5,-0.5143553206249996
19684,Tb3Ge5,-0.7238810156249995
19685,La2(SeO3)3,-2.3413267883593756
19686,YbAlAu,-0.7499299675
19687,CsNdS2,-2.047143684795259
19688,Ba3TiFe2O9,-2.6120077088888896
19689,GeF2,-2.391526064166667
19690,Na8TiAs4,-0.5290314989036248
19691,Zr6MnTe2,-0.5865317797701155
19692,Ba(GaO2)2,-2.613067477142857
19693,P3RuW2O15,-2.299425485535715
19694,Tb2Be2GeO7,-3.2854829725
19695,Gd3MnAlS7,-1.9133858258171703
19696,SmSnRh2,-0.7010183874999996
19697,ScRu2,-0.3900683916666665
19698,Y6Nb4Al43,-0.3362799799056608
19699,KCuO,-1.2247965501666662
19700,Cs2KVF6,-3.0930494263862074
19701,ScGeRh,-0.9900460233333332
19702,La2Si4CN6,-1.3323986119230768
19703,EuV(SeO4)2,-2.0037920105989584
19704,Tl4Si5O12,-2.638158877539683
19705,SmCd,-0.31945487250000015
19706,SrSn,-0.6760511933333335
19707,RbTa(BO3)2,-3.0108492425833333
19708,CeCrGe3,-0.4268366999999998
19709,CaLa4Si3O13,-3.7260690097619054
19710,Yb(GePd)2,-0.7588776980000006
19711,SrCaTbBiO6,-2.845154259666667
19712,RbSi,-0.005615329374999867
19713,Ce(BC)2,-0.43370901066666645
19714,ZrNi,-0.4557337100000005
19715,Ti4NiS8,-1.5224790444871799
19716,DyBi,-0.8498320800000005
19717,Er2B6Ru,-0.706865801666666
19718,LaCrTeO6,-2.5543332233333325
19719,SrV4(AgO6)2,-2.2130910684210536
19720,Ba14AlSb11,-1.1110537895192307
19721,Pb2SO5,-1.8349882722656252
19722,ErBi2IO4,-2.332201546875
19723,CeInPt4,-0.8088125841666667
19724,B3Pb6BrO10,-2.036312935625
19725,Cu,0.0
19726,Li2ZnCu3,-0.12681294444444488
19727,RbV2I3O13,-1.5012785548684213
19728,EuOF,-3.5571382258333344
19729,Rb2Zn3GeAs4,-0.3146266669999996
19730,LaInNi2,-0.41650644000000003
19731,KSbS2,-0.9905514898124999
19732,Cs2Lu7CCl18,-2.494669956637931
19733,Dy3AlC,-0.3826785219999998
19734,LiYHg2,-0.45318178499999995
19735,Sr(TmS2)2,-2.417953965714286
19736,Ta8Pb6O25,-2.8526934014102574
19737,Rb2LiRhCl6,-1.801043982833333
19738,BaNd2MnS5,-2.0358262520617822
19739,U2Si3Pt,-0.4940423683333333
19740,Ho3Ga8Ag3,-0.44664184142857116
19741,SbSe6IF6,-1.405802989933036
19742,KCr5Se8,-0.9118817601249997
19743,K2TeMo2(PO7)2,-2.2638735034603163
19744,BaNd2NiO5,-3.010056718333334
19745,AlCo,-0.6114748375000003
19746,SrFe3P4HO16,-2.4759074092000004
19747,Sc2Se3O10,-2.164512307635418
19748,PrVO3,-3.2054782605
19749,MgIn,-0.09480957999999973
19750,Li5AlO4,-2.518028172416666
19751,TiSnO3,-2.7546114736666665
19752,KEr(MoO4)2,-2.550548231083333
19753,HoZnGe,-0.6579935466666669
19754,Sm3Sb5O12,-2.6294609010000003
19755,CeNbO4,-3.4737656016666656
19756,Cu6Hg3(SbS3)4,-0.4529752725000003
19757,Tm2SeO2,-3.5211774591354157
19758,Cs2ZnO2,-1.5317420039224139
19759,Y2(GePt3)3,-0.770972243452381
19760,K2Se5,-0.9123355300312497
19761,LuBi,-0.7217452550000001
19762,La2I5,-1.7778815228571427
19763,Ta2WO8,-2.9176171663636357
19764,CdAs2,-0.08094055166666674
19765,Sr5Bi3,-0.8732889972916666
19766,Rb4GeO4,-1.8960365511111108
19767,Sr6Sn2NO,-1.160631806
19768,LiVF6,-2.9704845297916673
19769,SmZnGe,-0.6934518708333334
19770,BaPPt,-1.0802504202777772
19771,PmHoIn2,-0.46703017187499984
19772,MnN,-0.478175486465517
19773,BaDy2Si3O10,-3.605622336562499
19774,PmEuZn2,-0.2764265431250008
19775,MgCrF6,-3.120051798125
19776,Ce2Pd2Pb,-0.7387253190000003
19777,SmIn2Ir,-0.5375259125000005
19778,Ca2BrN,-1.6356008156249997
19779,CsAlH24(SeO10)2,-1.4214199128149698
19780,Ba2Zn2TeP2O11,-2.6396988593981487
19781,CaTaAlO5,-3.485226291250001
19782,Rb2Na2IrO4,-1.5369944509003826
19783,HoGePd2,-0.9139226368750002
19784,Al7Cu2Ru,-0.34319218025
19785,ScN,-2.0932449749999993
19786,Li2Pt,-0.5422436088888887
19787,SnHg7(P2Br3)2,-0.5118366794907404
19788,Li4Zn(H2N)6,-0.5407554647101449
19789,Sr3(SnP2)2,-0.7723870054629631
19790,NaCr12Si8ClO28,-2.619914655931034
19791,Dy5(In2Pt)2,-0.8130051745454548
19792,Hf9GeMo4,-0.21551080678571363
19793,Hf3Cu8,-0.16653078749999975
19794,Cu3SbF12,-2.0512797093749997
19795,Pm2GaCu,-0.3532952231249995
19796,Nd6Ti4Al43,-0.3367312220440253
19797,HoNi4B,-0.5017040698611103
19798,Li2AgSn,-0.3736144020833332
19799,W2NCl8,-1.3056483577272728
19800,CaMn3P3O13,-2.6054415501896555
19801,K2TaF7,-3.5145061013500003
19802,Rb2CdI4,-1.3544216128571434
19803,PrMnGeO5,-2.6768546578663788
19804,ScFe2,-0.27387501499999917
19805,Rb2NaYF6,-3.5765529733218395
19806,Dy2AgRu,-0.36069970291666653
19807,K2NiF4,-2.7425846208571434
19808,La4Os6O19,-2.3291286387931045
19809,HfScOs2,-0.5647514137500007
19810,K2Zr2ZnH12(OF2)6,-2.4111235230285715
19811,BN(OF2)2,-2.0999892364583337
19812,KZnSb,-0.46423688766666665
19813,CeGaPd2,-0.8073279281249999
19814,Th2Zn17,-0.2270239110526318
19815,KH8W(NF3)2,-1.6441176415555556
19816,CeAsSe,-1.6038967866145832
19817,RbBrF4,-1.8864555291666667
19818,LiBeN,-0.9944932669444443
19819,K16Na9(Tl6Cd)3,-0.12607262199925043
19820,Dy12Co7,-0.17679863657894737
19821,UN,-1.4900562725000004
19822,Cd(HO)2,-1.321028982
19823,Sc3Si3Pt,-0.9719405335714291
19824,KLa(SeO4)2,-2.038131666473958
19825,NbGaCo2,-0.3231618643750007
19826,Be2NiRh,-0.5919035324999999
19827,CeGePd,-0.9082650422222218
19828,PrPd3S4,-1.1605157515624995
19829,SmZnSi,-0.6221831583333337
19830,AuS3(O3F)3,-1.6472602544921884
19831,Mn2P,-0.5138673952873568
19832,Rb2LiLuCl6,-2.4664600488333335
19833,ScAs,-1.3736900049999994
19834,KCo2(PO4)2,-2.2650133090128204
19835,Er(MnAl2)4,-0.34215901705570345
19836,Pr5Ge3O13,-3.075747606428572
19837,Pr2Sn3,-0.7065476950000005
19838,CsCoF4,-2.45074925182184
19839,ThGeO4,-3.2568927824999996
19840,Tl(MoSe)3,-0.6881924079092252
19841,Pr(PPd)2,-0.9601013043333324
19842,KSr4(BO3)3,-3.125637885421569
19843,Ba3(CdSb2)2,-0.8491985011111112
19844,Sr(GeIr)2,-0.6528901193333333
19845,InAg(PSe3)2,-0.505235314239583
19846,Y2InCl7,-2.422722485583334
19847,TiMnCr(PO4)3,-2.7846752459035766
19848,CsNa2Ge17,-0.07933725055172403
19849,Rb2MnH2OF5,-2.5154972527664583
19850,Hf2SeN2,-1.9007174164687513
19851,NaLuGeO4,-2.906086450578818
19852,Y2Si4CN6,-1.3680589106410241
19853,MnAl6,-0.1736976254187194
19854,LuNiSb,-0.9552865566666663
19855,RbFeSe2,-0.8967329755468745
19856,RbYbBr3,-2.3203587485
19857,ScTeO3F,-2.8408448314583343
19858,TiNbC2,-0.6658945158333349
19859,BaTi2Sb2O,-1.5507346602777776
19860,Al2FeCo,-0.47433088375000043
19861,Zn(BIr)2,-0.3153632056666666
19862,Ho3(GaNi3)2,-0.5649915454545451
19863,RbAlBP2HO9,-2.7652191777222224
19864,Ce2SnPd2,-0.8309085909999994
19865,TlZnF3,-2.3711268521666664
19866,Sm2S3,-2.367298272375001
19867,Ba2ThCu2Se5,-1.671457456171875
19868,K2MgH4(I2O7)2,-1.3655522094399999
19869,Zr3Rh,-0.4169222237500012
19870,BaEr2O4,-3.7146183978571434
19871,KBe(PO3)3,-2.756193902714287
19872,Au2Se3O10,-0.9060577044687506
19873,NaAg2,-0.10016051829501886
19874,Er2Te3,-1.640211248
19875,Mg2As2O7,-2.283722423181817
19876,GdPb3,-0.3331307524999998
19877,CsPdBr3,-1.2382575400862066
19878,Sr3ScNiO6,-2.856598737272727
19879,Ba2ZnN2,-0.567599148
19880,TiGePd,-0.7103129894444441
19881,Cs4SiSe4,-1.2960956398443488
19882,KHo2F7,-4.2220415918
19883,Na3B6NO13,-2.4857035912893557
19884,Gd3(CuGe)4,-0.6204493281818176
19885,PrSm3S4,-2.2758724103125
19886,TbB4Ru,-0.6262341144444434
19887,TmTe,-1.4087147658333334
19888,Ca2Co12P7,-0.7042866296825396
19889,ScCl3,-2.57858231
19890,Pr4CoI5,-1.2570373520000004
19891,PaSnRu2,-0.36412255125000037
19892,CaTlCl3,-2.2276756856666666
19893,FeCo2Ge,-0.16883391125000102
19894,Nd(AlBr4)3,-1.7408878452083332
19895,Ti6Si2B,-0.6559841865740752
19896,TbInAg2,-0.3719298133333333
19897,Nd3Cu3Sb4,-0.845241925500001
19898,SiSe2,-0.7656431965624998
19899,La2MgVO6,-3.3694272780000007
19900,K(InAu2)2,-0.2885749175714289
19901,Hf5As3,-0.8692669279687504
19902,RbInBP2HO9,-2.5207340715555566
19903,HoBiPd,-0.9322406533333331
19904,TmSnRh2,-0.8373202854166664
19905,Tm(SiNi)2,-0.8230918393333333
19906,YGeBiO5,-2.6374516736458338
19907,CaGa3Co2,-0.3789758287500001
19908,Cs2K4Fe2O5,-1.4804041486816977
19909,Cs3TlO3,-1.3588165867323485
19910,Hg8Br3O4,-0.6227812003333334
19911,BaU2S5,-1.9195813319531254
19912,La6Zn4Pd13,-0.8145934199999998
19913,YbMg2,-0.08449287333333337
19914,Eu2FeSbO7,-2.530016629090909
19915,Ti3Cu4,-0.1258277557142853
19916,Cs2NaTiF6,-3.2996506584080465
19917,Gd2Sc3Si4,-0.7786870666666678
19918,Ba2V(SiO4)2,-3.2105179315384618
19919,Rb2TlRhF6,-2.4050387513333336
19920,Na3LiWO5,-2.2026094112988517
19921,Nb3Se10Br3,-1.043455763964844
19922,GdGeIr,-0.8995889641666656
19923,Zn3Te2P2(PbO7)2,-2.047750466376811
19924,YCd,-0.35574040333333334
19925,Zn6Mo,-0.04333072857142893
19926,Rb3NaPbO4,-1.5557956868390805
19927,Ba2Cd(BO2)6,-2.897223126428571
19928,Ce3S3N,-2.1890069159821417
19929,TlInSiS4,-0.8960937531547616
19930,ReS2,-0.9039978670833335
19931,YbPb3,-0.31490349250000005
19932,Na3Sc(BO3)2,-2.8156737389990423
19933,RbNa8(GaAs2)3,-0.45070142680076625
19934,LiMgAu2,-0.5867520758333331
19935,TiPb(S2O7)3,-1.926643387658046
19936,SrCo6O11,-1.4874610442592595
19937,PaAgTe2,-0.5873816641666672
19938,Li3B5(HO5)2,-2.576592909166666
19939,Tb2(Ga3Co)3,-0.4891489280357142
19940,LaAlO3,-3.7221933660000004
19941,LiTaRh2,-0.5493133908333334
19942,Tb4Ga16Co3,-0.5143551771739131
19943,Al2FeO4,-2.903564325714285
19944,H4C,-0.25475585800000006
19945,Sm4Al23Ni6,-0.517903752121212
19946,KGaSb4,-0.35248940841666726
19947,CeCoSb2,-0.7379227687500007
19948,Sm2MgIn,-0.3301250650000003
19949,Ca2FeSbO6,-2.5456404367500007
19950,CsNd(WO4)2,-2.633674543994252
19951,MoPb2O5,-1.8309971200000001
19952,ThTlF5,-3.81390004404762
19953,BaPr(SnS3)2,-1.476652554375
19954,LaYbZn2,-0.3443097637500001
19955,Tb6Al43V4,-0.3154188002830192
19956,YbSi2,-0.37411859333333375
19957,Cs2Hg3(GeS4)2,-0.799814335724138
19958,K4I2O,-1.5371649824285714
19959,Sr2UCu2S5,-1.5969950738958338
19960,Fe2B,-0.307497653055556
19961,Cs2Zr7CI18,-1.3111362544950746
19962,Rb2SeO4,-1.802562071763393
19963,ZrB4Ir3,-0.5278219489583327
19964,La12C6I17,-1.4180760738571434
19965,Pm2ZnOs,-0.1556199549999997
19966,P2Os,-0.5207952738888887
19967,Sm2Se3,-2.1716937969062506
19968,U2Fe3Ge,-0.26667745083333355
19969,Ti3SiC2,-0.8126256983333349
19970,Ce(SiRu)2,-0.8577173129999991
19971,MnVBiO5,-2.1457780603663794
19972,NdAlO3,-3.6724710259999993
19973,CeFeGe3,-0.5052296900000002
19974,Cs8Ga11Cl,-0.3716138562974134
19975,NdMgCd2,-0.3339612749999996
19976,Mg2Ir3,-0.3574854460000006
19977,Er2(Ni2B)5,-0.47696895769607794
19978,MgP4O11,-2.6998380020833332
19979,Sr3Fe2Cu2Se2O5,-1.926960036406251
19980,Ba4InSbO8,-2.680420198571428
19981,KAs2F7,-2.6310299013000007
19982,La3AgSnSe7,-1.6757910698394092
19983,Sb2(S2O7)3,-1.7113145413362076
19984,CsEr3Se5,-2.094509036072198
19985,TlBr,-1.1507479454166667
19986,LiCd2Rh,-0.2665891833333336
19987,Na2CrAsCO7,-2.0745153860919543
19988,Ce3Cr10N11,-0.9596517972916653
19989,Na2PtO3,-1.5039991488505742
19990,Dy6InCo2,-0.2619738294444447
19991,BaLu2Si3O10,-3.632782215312499
19992,La2MnCoO6,-3.226753870793103
19993,NaCo2H3(SeO5)2,-1.375485726179957
19994,GeI4,-0.5674376344999998
19995,YbP,-0.7339468416666666
19996,Rb6V6P6O31,-2.6186906846938784
19997,Pr9Ga4,-0.3598758519230768
19998,SrCaB11H7O22,-2.570365768035714
19999,Cs2NaScBr6,-2.0950903012413797
20000,Sc2InAu2,-0.7360481594999996
20001,NbPt,-0.6122592175000001
20002,Eu3Sn13Rh4,-0.5392144667499998
20003,Pr(AlFe)6,-0.3344759711538468
20004,Cu5SeCl5O4,-0.9693764384895833
20005,LiBiRh2,-0.2817170933333335
20006,AlCr2,-0.12225259999999949
20007,NdSiRu,-0.7565672833333323
20008,BaPt2S3,-1.2305125540625
20009,PbClF,-2.1444852475
20010,Eu2MoO6,-2.7353186166666665
20011,Rb3Bi,-0.3191456956250003
20012,ZrTi2O,-1.5963755029166657
20013,CsTiNiOF5,-3.1136149684738195
20014,Sm5Co19,-0.09152569666666821
20015,Mg3Si9B36C,-0.11728464285714237
20016,CaNb2O6,-3.2375350697222225
20017,Sr2Bi2Se3O2,-1.83218856115162
20018,LiAsO3,-1.9868354516666664
20019,YbBiO3,-2.375751603999999
20020,AsS(BrF2)3,-1.7492330184659095
20021,SrHg2Pb,-0.4075112716666667
20022,Sr3(PO4)2,-3.3202323489743586
20023,NaUBO5,-3.1562826532147996
20024,Na4Sr2TiAs4,-0.7886720302612331
20025,Ta5As4,-0.5147086188888892
20026,Dy2Se3,-2.1429647414062503
20027,Sc3Si3Ni,-0.8329314228571434
20028,K2Zn3O4,-1.7129024184444444
20029,TmI3,-1.6215998391666666
20030,Sm6Cd(GeS7)2,-1.800916151467392
20031,NdGa3Cu,-0.5046678964999998
20032,Lu6Pb5,-0.43606666909090885
20033,Sc5OsCl9,-2.1710833470833335
20034,Sm(Ni2Sn)2,-0.4115691678571431
20035,Y(Al2Fe)4,-0.43256386051282025
20036,LiCdAs,-0.47882126277777753
20037,Al2Ru,-0.7188397850000001
20038,KGaGe3O8,-2.1880769877307693
20039,TbFe2,-0.05717394333333322
20040,Zr6FeBi2,-0.312253332222222
20041,KNpCuS3,-1.429515340187501
20042,KCa10V7O28,-2.990281151478262
20043,YbSi,-0.5160488874999998
20044,Al2IrRu,-0.8878175012499998
20045,K2NaGaP2,-0.45428041445306516
20046,KCa4(BO3)3,-3.157561983558824
20047,Ce3(Al3Os)4,-0.5857656105263157
20048,K4ZnP2,-0.39638632552380976
20049,BaYAgTe3,-1.4733355055555553