,formula_pretty,formation_energy_per_atom
17158,LiCaSn,-0.5611635127777777
17159,La4P9Rh8,-1.1041201269047625
17160,Ti(CrS2)2,-1.2075575208333345
17161,K2VPO6,-2.5762469844333333
17162,Lu2FeB6,-0.6923053730555553
17163,Cs2KNdBr6,-2.1779322643862074
17164,YCu,-0.25856218833333333
17165,Na5Cu3As4HO16,-1.7048101757847796
17166,Er2Ge2Ru,-0.8013515830000003
17167,SmHSO5,-2.5243066713281257
17168,OsS2,-0.6921310204166661
17169,Cs3AsO4,-2.0064242014116376
17170,Yb5(Si5Ir2)2,-0.6463241528947372
17171,Ca14AlSb11,-1.07501959
17172,YPdPb,-0.7341763855555554
17173,Ag2TeS3,-0.27802351628472266
17174,RbTiS2,-1.5205495867708336
17175,Li10Co4O9,-1.8249558286231882
17176,K3Bi2(PO4)3,-2.5069060069499995
17177,Ce(FeB)4,-0.4928102329629635
17178,Na,0.0
17179,TiCdO3,-2.6788850566666667
17180,Eu2AlP3Pt7,-0.9271152169230769
17181,PaBr5,-1.8895749533333337
17182,H8S5N2,-0.47661162337500024
17183,TiAu2,-0.4231389844444446
17184,TmCu2,-0.2887807222222219
17185,Rb4SiO4,-2.2477425025
17186,Ba8Si6Sn,-0.4560844073333338
17187,WCl4,-1.3190543730000002
17188,Tb2Te3,-1.6704933580000003
17189,Nd5Ni19,-0.3129970458333335
17190,Nb6Co16Ge7,-0.30017824086206896
17191,CsSnF3,-2.783093803586207
17192,Na3NiAsCO7,-1.9265544930503968
17193,Cs3Bi2I9,-1.2145204620566505
17194,VP,-0.8149034391666667
17195,VP2,-0.6113376155555557
17196,Ca(NiAs)2,-0.6658266519999998
17197,AgAuF4,-1.4057313652777774
17198,Cs2WS4,-1.3195439979802959
17199,Lu2AgPt,-0.8483752641666662
17200,Li2ZrF6,-3.681093611296296
17201,Rb12Sn2As6O,-0.5081931211904758
17202,HfGa2,-0.4543336483333332
17203,Er5(ReO6)2,-3.378364396842106
17204,LiTm2Ir,-0.6420451266666669
17205,Pr3(P3Pd10)2,-0.6931421674137931
17206,BIr,-0.20050789958333315
17207,TaNi6Mo,-0.22988147749999932
17208,EuMoO4F,-2.6594374542857144
17209,RbCuF3,-2.3386369129999998
17210,TiO,-2.9079562791666667
17211,Ba4Na(BiO4)3,-2.183419864327586
17212,Dy5Ru2,-0.35728539500000017
17213,CeTh3,-0.00989564625000039
17214,U4CuTe12,-0.8062172641176463
17215,Sm5P12Ru19,-0.8484529761111111
17216,TbZrSb,-0.8684688633333337
17217,PrHg3,-0.4024211262499999
17218,Yb2(SeO4)3,-1.6960973457077206
17219,Cu3AsF12,-1.9826966790624998
17220,CsK(ClO4)2,-1.0972301184109199
17221,Tm2Ga10Os3,-0.4135939262222223
17222,Nd6Nb5S16,-1.9853595564814819
17223,TlCr3Se5,-0.7912814222280089
17224,K2SrVB5O12,-2.8349295430238084
17225,Rb3GaF6,-3.0371312484999997
17226,K2Ag(AsSe2)3,-0.6988473126440974
17227,FeSb3Pb4O13,-1.7939432022619055
17228,Rb2NaMnF6,-2.9886395494482763
17229,Sr9LaTi10O30,-3.5750887785666667
17230,BaEu2Mn2O7,-2.714984763405173
17231,NdSBr,-2.357687295208334
17232,Er3FeB7,-0.6385856381060596
17233,FeH8N3O13,-1.1083794417000008
17234,Li5ReN4,-0.8064608626666668
17235,Zr5NiSb3,-0.7748419061111113
17236,SrCdAu,-0.6039479397222222
17237,GdRh2,-0.7288017000000006
17238,CeGaNi,-0.6138730497222219
17239,K2Dy4Cu4S9,-1.6598717270592103
17240,SmTmS2,-2.2302825669791666
17241,Ho2Sn5Rh3,-0.6920771000000002
17242,NaPb2IO6,-1.3778787441551728
17243,ErAg(PSe3)2,-0.834633274239583
17244,LiBePt2,-0.6841804270833336
17245,La2Ni7,-0.3153389649999991
17246,K3NbP2O9,-2.782760035877778
17247,AlTlSe2,-0.9912056529427078
17248,Cs2U4Nb4O23,-3.2868772669958197
17249,H4I3N,-0.5385224665625001
17250,HoBiRh,-0.7382025966666667
17251,CsNb4Br11,-1.3955910834644394
17252,Eu2MnP3Pt7,-0.8528729090716178
17253,Ba3Co3Te(PO7)2,-2.5026771063768116
17254,CoPPd,-0.6020116727777776
17255,K4ZnBi2,-0.34642405528571424
17256,TlIn(MoO4)2,-1.9022826827777781
17257,MnCo,-0.02585748146551836
17258,CsNaTe,-1.15127548316092
17259,CaI2,-1.89441126
17260,Cs2KCeBr6,-2.1652361248862073
17261,LuTlTe2,-1.2158225458333334
17262,NaNdS2,-2.0404023357004313
17263,Nd6Al5Fe9,-0.21781360250000076
17264,Ba5B3ClO9,-3.1657849568055556
17265,SrNi5As3,-0.5148910140740739
17266,Sm2SiO5,-3.7401105106249997
17267,ErB4Ru,-0.6486913740277783
17268,Hg2Pt2O7,-0.8450770686363633
17269,Ba3Nb2CdO9,-3.021884541666668
17270,ErZnSn,-0.5560460433333331
17271,Hf2Au,-0.43743618
17272,Cs2W(OF2)2,-2.692665822873563
17273,PmHg3,-0.37010682562499997
17274,CeMgPd,-0.5645308261111113
17275,Sr2TaCrO6,-3.226636608333332
17276,K4Na2TeO6,-1.746236221931035
17277,NaV3O8,-2.342378897212644
17278,Ho3GaS6,-2.0269447831250007
17279,Ba2EuReO6,-2.8893626400000003
17280,Li2Fe12P7,-0.5169453990476197
17281,K3NaTh2O6,-2.9605895954626433
17282,DyCuPb,-0.38969246833333376
17283,Hf5Te4,-0.8419409877777776
17284,Ca11(ReO6)4,-2.906638
17285,Na4Ho2(IrO4)3,-2.115833018866996
17286,Ti3Sn,-0.29963901125000003
17287,Ba4Ta10CoO30,-3.3409344694444436
17288,Nd12InCo6,-0.13731412736842086
17289,Nd3Ni,-0.1691717556250003
17290,U4As6Ru7,-0.5698572408823516
17291,MnNbRu2,-0.164129904482758
17292,RbFe(MoO4)2,-2.0151268297916674
17293,Eu2Ta2O7,-3.4717984086363627
17294,Sr(GeRu)2,-0.4997759413333327
17295,NaSe,-1.061229378197737
17296,Na2Sm2B2O7,-3.1359095524182132
17297,Nd6S4BrN3,-2.0872058151785717
17298,KPF6,-3.092881122666667
17299,SrF3,-3.207891109791667
17300,BaErAgSe3,-1.7656813272829865
17301,Cs2MnTe2,-0.9438405797586213
17302,Eu2Pt2O7,-2.083372982727272
17303,CsHg2,-0.25654111597701146
17304,ZnMoF6,-2.7006620206250007
17305,Cs6Co2O7,-1.4766468915057465
17306,CaMgTl2,-0.27864813166666647
17307,Rb3NpH8O9,-1.87082056577381
17308,Mg149Al,-0.027234511333333367
17309,Y9U5O28,-3.906844657857143
17310,Ho6ReO12,-3.642399686052631
17311,Sm5(In2Pt)2,-0.7803143190909093
17312,ZnGaNi2,-0.33499710937500016
17313,HoSF,-3.306929836875001
17314,K2Rh2O5,-1.2340616901111119
17315,Li3MnP2(O3F2)2,-2.8035484563811073
17316,Sr(P3Pt2)2,-0.8047567233333333
17317,Mn2Fe4SiGe,-0.2246318026077585
17318,Na5ScH4(C2O7)2,-2.0789024600985218
17319,Zr5Si6H36C12(Br10O3)2,-1.0247509942941178
17320,Sc3Ga2,-0.5731920684999998
17321,TbSn2,-0.6047070200000005
17322,Mg7P6(HO6)4,-2.7639647824390243
17323,LiV(OF)2,-2.718107398055556
17324,HoSe,-1.9515820261718746
17325,Ho(CuS)3,-1.0662937770535723
17326,Rb2TaF7,-3.5056345162500007
17327,NbI5,-0.7471353974999998
17328,Rb2Te2Pt,-0.9681864490000003
17329,Sr11Sb10,-1.0678118725396826
17330,CuSb3XeF23,-2.0849666005357146
17331,EuTiClO3,-3.1968591938888893
17332,K3BiSe3,-1.1540401769330362
17333,K2ScSi4O10F,-3.294236253527777
17334,DyMgAu,-0.6855857388888885
17335,Dy2InPd2,-0.874960479
17336,DyMgPd,-0.6932772122222219
17337,Li2PdF6,-2.3665910046296292
17338,NbMo,-0.0743030950000012
17339,Hg4Sb2I3,-0.35282351291666697
17340,Ba3Mo2(P2O9)2,-2.8511721690123464
17341,Y3AlC,-0.4184340980000002
17342,DySeClO3,-2.4899626578906244
17343,NdSi2Rh3,-1.0425691608333334
17344,Ge3(SbO3)4,-1.9330157489473685
17345,Dy2AlCo2,-0.3935940500000001
17346,HoInNi,-0.5021172077777776
17347,SmCu2,-0.23164553166666657
17348,Rb3ErV2O8,-2.7256904166071427
17349,Ba(IrO3)2,-1.7087370800000012
17350,Zr4N3OF5,-3.1310818825000006
17351,Tm(CuTe)3,-0.7034375895238095
17352,Ir2Pb2O7,-1.425467333636363
17353,CsK2BiCl6,-1.9934470971431033
17354,Ce2(Ga3Ru)3,-0.539118035535715
17355,MgP4(Cl5O3)2,-1.9309043801587304
17356,Ca2CdPd2,-0.6622349859999996
17357,Ca2CoIrO6,-2.1289319037500007
17358,TbCuPbS3,-1.350240770729166
17359,MnP4,-0.3612154429195414
17360,Ca3Cr2(SiO4)3,-3.1913641684999994
17361,LiAl(PS3)2,-0.9491573228750007
17362,Pr32In3Rh19,-0.5734739512962959
17363,KBaYSi2O7,-3.383515738930555
17364,LaYbCd2,-0.3887509712499999
17365,Tb2ReB6,-0.6061236863888885
17366,Y2Ni12P7,-0.7677771831746034
17367,PrGa2,-0.6935619266666665
17368,Lu2AgRu,-0.4404485579166657
17369,DyRe2,-0.2225605899999993
17370,BaCdAs2O7,-2.10700353090909
17371,HoSe2,-1.852683789895833
17372,ErLuCu2,-0.2903340124999998
17373,K2Mn3P4(HO3)4,-2.1425586989250576
17374,Zn3Ni4(SbO6)2,-1.6584935111904773
17375,TmMg2,-0.049704252222222266
17376,HoInPd,-0.8159149033333333
17377,ScGaNi2,-0.5701341281249999
17378,Dy3Se4O12F,-2.4852513013437494
17379,Cs2Ni3S4,-0.9675104603735636
17380,NaSr4(FeAs)10,-0.477850896928735
17381,TeSe,-0.2434491661718751
17382,K2Zn(SiO3)2,-2.7382411378181826
17383,HoTmRu2,-0.3872382591666659
17384,Rb2Li3GaO4,-2.0277087522499997
17385,Yb(AlSi)2,-0.28742513999999986
17386,Sm5Si3,-0.5819735250000004
17387,U3Cu2S7,-1.4213548034895827
17388,Zn(RhO2)2,-1.301455864285715
17389,Nd2Ni2Sn,-0.5200833629999998
17390,Y4H9NO13,-2.251764244876543
17391,BMo,-0.5020885320833344
17392,K3NO4,-1.3844479220624994
17393,Sn14Sb11Pt8,-0.4011336199999994
17394,TmLuTl2,-0.27452918583333297
17395,CeZnCuP2,-0.735688050333333
17396,Ba(AsRu)2,-0.6961739760000001
17397,H2S,-0.3164414577083334
17398,Li2Nd(NO3)5,-1.4331346449637683
17399,Ta2ReTc,-0.46416309625000096
17400,TiB,-0.8320523850000008
17401,PrBrO,-3.2602423941666667
17402,LiBiPd2,-0.4421237858333331
17403,LiEuH3,-0.6245048086666664
17404,CeBiAu2,-0.5811202737499999
17405,Ca2Ni7,-0.14862428944444478
17406,MgGaPt2,-0.7104275493749999
17407,Dy2Pd2Pb,-0.8423136530000008
17408,Ho2FeC4,-0.3007978585714284
17409,NaInS2,-1.1120819057004305
17410,Ga3Co,-0.2683883543749994
17411,AgAsO3,-1.273988419333333
17412,Cs2Mo3O10,-2.1194140513908044
17413,ZrN,-1.8601482175000008
17414,Rb2LiInF6,-3.016121206333333
17415,YbS,-2.4985128115624997
17416,Ta7Co6,-0.25149555923077027
17417,YAl3Ni2,-0.6608140966666665
17418,Sr3(BS3)2,-1.669304787916667
17419,K2FePCO7,-2.2545541074444437
17420,Zr5TePb3,-0.3730652538888882
17421,Sr3Fe2O7,-2.3934127120833337
17422,SmB7(HO2)8,-2.373275357942708
17423,Pr11Cd45,-0.27795824071428576
17424,DyPaTc2,-0.14321002500000013
17425,YbTe2,-1.2717727699999994
17426,MgGaAg2,-0.1546940577083329
17427,Cs2In3,-0.1470935451724138
17428,La9In(SiS7)3,-2.026305611047794
17429,NdTl3,-0.31935177999999986
17430,Na2NiH8(SO6)2,-1.6577166555741376
17431,TiH8(NF3)2,-1.8705486140196077
17432,SbI5F6,-1.5632990644444449
17433,NaLiCdS2,-1.1989066232270118
17434,HoSiRu,-0.8191781983333328
17435,Nb2Se4O13,-1.8658326602302642
17436,AlPd5,-0.46269488958333344
17437,AsOsSe,-0.3840203341145833
17438,LiGdSn,-0.6582831027777788
17439,YbAlF5,-4.134004083214287
17440,SmCd2,-0.33312160833333354
17441,ScInCu2,-0.31273070625
17442,TaB,-0.8128741745833317
17443,AgW3Br7,-0.8187410237878787
17444,VO2,-2.4802756983333345
17445,Rb7Au5O2,-0.6940675258928576
17446,Ba3Gd2(PS4)4,-1.4942428478333334
17447,SrLiGaF6,-3.4718807186111107
17448,AcAg2Sn,-0.36139686520833303
17449,La2Cu(SeO3)4,-2.044613067598684
17450,DyZnRh,-0.7370886916666665
17451,NaBPt3,-0.4390379971436779
17452,Sr8RuRh3O16,-2.4062003399404763
17453,Mn3H2Se3O10,-1.5949395156013528
17454,Ba3IrN3,-0.5778911157142852
17455,MnPS3,-0.7080502071278737
17456,RbI(OF)2,-1.8645915650000002
17457,Tb5RhBr9,-1.9865613481666662
17458,HfZnPd2,-0.6796276075000005
17459,Li7Ti11O24,-3.233804243095238
17460,Hf2Al3Cu,-0.444173403333334
17461,PuNiC2,-0.09941242500000058
17462,SmInAg2,-0.37108000458333334
17463,Ba3Ta4TiO15,-3.4620639038405803
17464,Y4MgRh,-0.3932873231944451
17465,Li9Nd2(PS4)5,-1.2602333759490736
17466,K2(TaS2)3,-1.4933429886136371
17467,Sm3Sn13Ir4,-0.4928243692500004
17468,Na(WO3)9,-2.1972623422041
17469,Re3(SeCl)7,-0.9125083778768378
17470,EuTlPS4,-1.1885690227380954
17471,Hf2N2O,-2.534254598750002
17472,Ca(IO3)2,-1.5280873158333337
17473,K4Rb2Co2O5,-1.4069072293846152
17474,K8NbSnAs5,-0.4828343320999996
17475,HPbClO,-1.4687166150000008
17476,KEr2Cl7,-2.6610958835500003
17477,BaSiP4(HO7)2,-2.6761672119696964
17478,USbTe,-0.7639681500000002
17479,RbCoF3,-2.627746191
17480,La(BRu)4,-0.4796761735185176
17481,LuMgCd2,-0.2594758399999999
17482,LaGe3Os,-0.5244664929999999
17483,Sc2P7Ru12,-0.7218899858730156
17484,CeGe2Pt,-0.8654370881249998
17485,CaIn2Ir,-0.4395023884375
17486,Sc7CoI12,-1.3585116890000002
17487,Er2Fe6Co6P7,-0.7911229415873011
17488,SrBiNO5,-1.831372690208334
17489,Na2Ni2(B4O7)3,-2.6470307072460386
17490,NaGd3Ti2(SbO7)2,-3.128104746282654
17491,TiGaNi,-0.5492847036111113
17492,EuPaO4,-3.8370439624999997
17493,KC8,-0.03644985366666731
17494,LiTiPt2,-0.8257721691666671
17495,NdCoC2,-0.2687315175
17496,CeAl4Ge2Au,-0.4219800368749995
17497,K3YCl6,-2.4886222515666665
17498,CsBO2,-2.605463711774425
17499,Rb3IO,-1.4023163981666669
17500,Na5Ti2Si2PO13,-2.948338672946027
17501,Pm3Au,-0.2319424656249991
17502,Li2CO3,-2.2484518902777775
17503,Y3TaO7,-3.8386291636363628
17504,NaCrS2,-1.1968854032004304
17505,AlAu4,-0.21094242850000028
17506,TcSb(OF4)2,-2.403624591041666
17507,BPd5,-0.2177045856944441
17508,Nd(CoP)2,-0.9779781333333333
17509,Tm3Ga5,-0.6284877799999995
17510,RbTaCl6,-2.0077390196875005
17511,LaAs2,-1.0628204116666662
17512,YMgZn2,-0.3502414791666668
17513,Y16Mg3AlNi4,-0.23509892319444484
17514,Dy(CuS)3,-1.0680360549107146
17515,MoH8(S2N)2,-0.5768790028333333
17516,Sr(ZnP)2,-0.6909898666666667
17517,TiAlRu2,-0.7654825508333332
17518,K2BAs2HO8,-2.0465463696547608
17519,Cs3Er2Br9,-2.251124736520936
17520,NaZnAs,-0.42500744718390787
17521,Sm2Si5Ru3,-0.8118669907499992
17522,PrCdAu2,-0.6404622662499997
17523,LiDy2Ru,-0.286260667083333
17524,NbSnS2,-1.1088975390625002
17525,RbCoNiF6,-2.4581619025000006
17526,Ho6Se11,-1.9580248659283086
17527,Mn3Cd2O8,-1.750454806445624
17528,YHg3,-0.36232883541666694
17529,K2Te2Pd,-0.9741308892000007
17530,PuB2Rh3,-0.5815390097222218
17531,K38Nb7As24,-0.47699653005797105
17532,Tl2Pd3Se2,-0.47978810447916637
17533,HfOs,-0.7088030174999993
17534,TmAu4,-0.6041801793333328
17535,LiMgAg2,-0.23999886916666657
17536,TlTe,-0.4740050613541662
17537,Pr(AsRh)2,-0.9279001529999988
17538,Sm3Si11Pt23,-0.874648976081081
17539,Nd2(MoO4)3,-2.6134288861764703
17540,TbBO3,-3.467488649833333
17541,Ho2Zn17,-0.23786744789473677
17542,DyCrO3,-3.2230581230000013
17543,LiPm2Al,-0.1974622045833332
17544,TaZnCo2,-0.23183927250000025
17545,TiB2,-1.0556660338888892
17546,SbTeRh,-0.7041548574999995
17547,SbBr(OF3)2,-1.8529377352499998
17548,Cs2SiP4(HO7)2,-2.570538859530234
17549,ZrSn2,-0.4265307583333329
17550,In2AsPt8,-0.3426225922727268
17551,Ba3Zr6BeCl18,-2.286925170357143
17552,Dy3AlNi8,-0.5004955816666671
17553,Mn2SiS4,-0.8650918186945812
17554,ZrUS2,-1.6638931465624989
17555,NaLa(GaS2)4,-1.340275560825123
17556,KPH3O4F,-2.1399591393833326
17557,K(CoS)2,-0.8278480678500003
17558,SmCd11,-0.1252328987499999
17559,Pr(GeRh)2,-0.8890371829999992
17560,Zr6Be15Pd8,-0.47174585913793193
17561,TaPRu,-0.7783471852777785
17562,Ti2ReIr,-0.7592928854166665
17563,YbNiGe2,-0.6236760968749993
17564,Ho3Sb4Au3,-0.8719619709999996
17565,Y(VSn)6,-0.22919156435897475
17566,Nd3W(ClO2)3,-3.1119413911538465
17567,Hg3PO4,-1.515509941041667
17568,EuTe,-1.8918302324999994
17569,TaAlCu,-0.23806415416666718
17570,Sr4LaTi5O15,-3.5905729293333333
17571,Co3Ni,-0.025788405000000125
17572,Pu2Se3,-1.8205848159062499
17573,K2SmBr5,-2.1972610185625
17574,HoBO3,-3.560108041833333
17575,TbPS,-1.736663158819444
17576,Sc2(SeO3)3,-2.2597795505022327
17577,CsEuSiS4,-1.5537539414901482
17578,TbCoO3,-2.6278742174999996
17579,ReTeSCl4,-1.0622906083035712
17580,Er2Al,-0.2931786558333336
17581,CsNdHgSe3,-1.4673465416603808
17582,GdPPd,-1.2570814644444432
17583,Ba3ErRu2O9,-2.64538182
17584,Li4TiS4,-1.5539656832407411
17585,NpBr3,-1.8056161678125004
17586,Sr2RuO4,-2.473796924047619
17587,Ba(NbN2)2,-1.1058662374999988
17588,Na4Si2PbSe6,-1.0736816138668765
17589,Pm3Ge,-0.3410316768749997
17590,Ho7C2I12N,-1.5420218070454548
17591,Dy2TlCd,-0.34045650083333356
17592,Ba2NbRhO6,-2.7332246090000014
17593,Co(BW)2,-0.45845287266666757
17594,YbZn11,-0.18598445541666667
17595,CaAlH5,-0.4084039524999997
17596,Eu3(MgGe)5,-0.504349701538461
17597,Rb2MgCl4,-2.278259995
17598,Ba5(TiN3)2,-1.1419509182051268
17599,Tm(NiGe)2,-0.6658218053333336
17600,Ca2FeReO6,-2.555037708500001
17601,Ce(CoP)2,-0.9908449243333323
17602,Nd(ErS2)3,-2.3842030633749998
17603,Pm2AgSn,-0.5310964666666669
17604,Al6Ru,-0.32937833928571386
17605,Li2CuGe,-0.31975112541666695
17606,Ga5Pt,-0.3057445483333332
17607,RbNbAsClO5,-2.3316637486111116
17608,Yb2CuTe2(SO7)2,-2.057094215535714
17609,K2Ca3Si3O10,-3.206869508944444
17610,BaNaP3H3(NO2)3,-1.9522825924442193
17611,Na2CrO4,-1.9886329933004927
17612,Ce3(TaN3)2,-1.5739171131818184
17613,Ba2CaIrO6,-2.5373589709999997
17614,Na5NbO5,-2.2376899457053296
17615,Te2Au,-0.3712443362499993
17616,Ce2C2Cl,-1.0162657729999993
17617,BaAlGeF,-1.815238951875
17618,YbAgSb,-0.7871679130555554
17619,K2Zr(PO4)2,-3.0177589132820515
17620,LiMgHg2,-0.3108379283333331
17621,PuI2,-1.2739084866666666
17622,BaBe2(BO3)2,-3.120560989848485
17623,La2CuSi3,-0.6343831616666661
17624,PmDyRh2,-0.7706847343749992
17625,HoS,-2.2221329415625
17626,Sc2Co3Si5,-0.7050328404999995
17627,ErB4Mo,-0.637903256527777
17628,Cs2RuO4,-1.73037329226601
17629,CsNO2,-1.2713651057327588
17630,Li4Be3P3ClO12,-2.8705831360144933
17631,Ta6Te3S,-0.5684584803125006
17632,LiCdFeF6,-2.730061695925926
17633,Np2InPt2,-0.46829361350000054
17634,Cs4MgZr3(PO4)6,-3.0674003433348447
17635,K2Mn2(SO4)3,-2.1496281432230036
17636,ErTmRu2,-0.4040368541666668
17637,HfTaC2,-0.8060872025000005
17638,Nd2Co12P7,-0.7471866844444448
17639,K4U5Te2O21,-3.0324400549062505
17640,RbAcTe2,-1.4557801350000004
17641,BaMo(PO4)2,-2.8134327663888903
17642,K4Au6S5,-0.8144674351749999
17643,FePO4,-2.334485672222223
17644,SmCuS2,-1.6315252846875001
17645,Rb3Yb(PO4)2,-2.7724771042261898
17646,K3In(IO3)6,-1.2468748124642863
17647,EuCo8P5,-0.6897240897619048
17648,Zr2Cu,-0.13238422666666713
17649,CsFeS2,-1.0278733672952587
17650,Ho(AlGe)2,-0.40210583799999994
17651,K2TeO4,-1.795413654071428
17652,PrH18(BrO6)3,-1.1929373530625007
17653,Ca2B5ClO9,-3.0409757625490186
17654,TiW,-0.02004290166666678
17655,LiMg2Rh,-0.3795861658333335
17656,BiSeClO3,-1.4669846470572914
17657,Li3Cr2(PS4)3,-0.91733237575
17658,Cs3Tb10C4Cl21,-2.2713783844419244
17659,Nb10Pb14O39,-2.4120293200793657
17660,Li2MnO3,-2.180112729932951
17661,Ti6In2Si2P12O49,-2.940204050774648
17662,Zn3TeO6,-1.6995920333333345
17663,CsErZnTe3,-1.2954155838218397
17664,Hf2SbP,-1.0303075633333334
17665,Lu2Mn3Si5,-0.5859953273793096
17666,Ba2CaV2CuF14,-3.4803628504999993
17667,Ba2LiOsO6,-2.4420132628333335
17668,LaMnN3,-0.9079060795862077
17669,Pr2InCu2,-0.3178168939999999
17670,BaNb7O9,-2.5791630785294113
17671,Ba3SmInS6,-2.0513810830681822
17672,La4Te3N2,-1.8795101149999998
17673,Ce15Ni32,-0.38066144010638303
17674,PuClO,-3.0838078799999997
17675,YbNdHg2,-0.575656985
17676,K3Na2SnP3,-0.39689223745593893
17677,Sr4Li2Si4N8O,-1.4960651728070173
17678,ErSiRu2C,-0.5977735069999994
17679,Dy(IO3)3,-1.4899245348076933
17680,Tb10B2Br15,-1.83840995632716
17681,Mg2Cu3Ge,-0.20249960333333306
17682,U(SiNi)2,-0.5474314299999989
17683,MnInPd2,-0.3933454669827592
17684,HoN,-1.9185447975
17685,Zr10C9,-0.8021451221052617
17686,Pr3Si2S8Cl,-1.8473232739285719
17687,KLaSiSe4,-1.567345163910714
17688,Hf2ZnRe,-0.29712552374999923
17689,Rb2SnTe5,-0.7997863199999999
17690,Ca2Si3Pb3O11,-2.827529877807018
17691,CrNiAs,-0.2162036049999985
17692,LiNdGe,-0.6834994772222226
17693,Li3YSb2,-0.8915527094444441
17694,NaInHg2,-0.17909207163793095
17695,CuH2SO5,-1.4496620186805558
17696,VAs2,-0.39634073333333336
17697,Sm6GaCo2,-0.21925370805555466
17698,NaGdSe2,-1.9475514428098055
17699,AcCu3,-0.07860307062500027
17700,CeAl2,-0.4641614333333332
17701,Pr4Se3(O5F3)2,-2.980872076392663
17702,LuTl,-0.2564694266666665
17703,Y3Pd4,-0.9246870107142858
17704,Yb11Sb10,-1.0353864261904757
17705,Ba3SrMg2(TeO6)2,-2.679133180833334
17706,TaP,-0.9307038216666683
17707,BaGaCu2,-0.21940052187500036
17708,Cs2Li2TiO4,-2.529717881206896
17709,NaZr2MnF11,-3.723126339465517
17710,Lu6Co2Sn,-0.37844107944444416
17711,Bi4Rh,-0.14208049216666724
17712,LuZn12,-0.15771497538461568
17713,Er2Co3Ge5,-0.5726449435000006
17714,EuMgZn2,-0.23322722875000013
17715,Na2W4O13,-2.2175718156896544
17716,Li2PdAu,-0.5066612591666666
17717,NdCoSi,-0.6603585233333339
17718,Sb2IF15,-2.388984133055556
17719,AgPd,-0.05888237833333321
17720,Nd(NiP)2,-0.9873400793333331
17721,Tb2InNi2,-0.5184431399999994
17722,ErZnPd,-0.765821027777777
17723,Nb2ReTc,-0.29781095125000157
17724,Cu2HgI4,-0.4456140721428566
17725,Cs2TlRuF6,-2.40956269891954
17726,Ca(PRh)2,-0.9598979013333334
17727,Rb3Al2(PO4)3,-2.932969241625
17728,Dy12(OsC3)5,-0.3497109676562493
17729,Li3CuS2,-1.2109802827083331
17730,CaBiAu,-0.7256758399999997
17731,U2NiC3,-0.1564427575000001
17732,Ca9Zn4Bi9,-0.6556539261363642
17733,Ba2SrIrO6,-2.4569452956666673
17734,HfPRu,-1.0765916561111117
17735,YbIr2,-0.6255842350000004
17736,CaTl3,-0.24671946750000018