,formula_pretty,formation_energy_per_atom
18315,Mn(AsO3)2,-1.8337201217145602
18316,Dy5(SiB4)2,-0.6726744958888892
18317,KPr3Te8,-1.4340610535833331
18318,NaFeCl4,-1.5340199494252869
18319,TmTiGe,-0.6980427500000003
18320,K9Fe2S7,-1.1697612906319448
18321,Nb10Ge6C,-0.5345087205882351
18322,Ba2SmUO6,-3.5953966615000006
18323,MgV2PbO7,-2.4144681622727275
18324,SrPt3O4,-1.3776797814583333
18325,PrGe3Rh,-0.7032290840000002
18326,Ba3GaAs3,-1.0050611873214288
18327,YInCu,-0.42663933666666687
18328,KNd(SO4)2,-2.5510422755624997
18329,La2CdRh2,-0.6467443349999996
18330,SmMg3Ni8,-0.2734391354166667
18331,LiMnP,-0.6237397331992346
18332,Eu(ZnAs)2,-0.6781134029999997
18333,Na3GdI6,-1.5632911319655172
18334,TaMnGe,-0.25651982431034526
18335,Sm4Al2O9,-3.757058576000001
18336,PmSmMg2,-0.10469192312499986
18337,Sm5Ge4,-0.824940056388889
18338,Nd2CO5,-3.0654922581250013
18339,Er2Mn2O7,-2.915723314623824
18340,K2P2PdO7,-2.377101710013888
18341,BeS,-1.3082062240625003
18342,Si2H2S3,-0.7022099324107138
18343,LaZnNi,-0.39187491944444414
18344,Na15Mo7N19,-0.5456242736164846
18345,AlSb2(SeCl2)2,-1.3013437030208332
18346,CdPPt5,-0.33761552619047663
18347,La6Mg23Si,-0.14969043133333315
18348,Y3In5,-0.48059930500000014
18349,Gd2TlAg,-0.35275471499999966
18350,Sc2AlSi2,-0.6790501319999998
18351,Be2BO3F,-3.178988075952381
18352,Er2In,-0.3427828083333336
18353,Dy3(Al3Ru)4,-0.6648061221052629
18354,CsVOF4,-2.95217671291872
18355,Lu2Si9B36C,-0.19738154541666594
18356,Sr3Er2(GeO4)3,-3.1030515923750004
18357,Tb2SO2,-3.5773206686250005
18358,Sm3In5,-0.49854551812500025
18359,LaPb6ClO7,-1.9043772473333334
18360,BaNaAlF6,-3.8318599244779694
18361,ThSi2Ni,-0.8214439025000004
18362,Lu2(MoO4)3,-2.7026669470588236
18363,SrCO3,-2.7003895938333335
18364,Mg3Ga7Co2,-0.2444283377083334
18365,Ca2V2O7,-2.9080764236363636
18366,B2S2O9,-2.0889520868910267
18367,Ba2YbRuO6,-2.6600217905
18368,UFeC2,-0.14551979874999965
18369,Na3Gd(CO3)3,-2.375597443103449
18370,Hf2In5,-0.13381056571428576
18371,LuZnPt,-0.9989865116666662
18372,B2H5,-0.17927501726190442
18373,Re3Se4Br,-0.7587109471093747
18374,La6Mg(GeS7)2,-1.9916207801630446
18375,Cs2TlInBr6,-1.5811946894195401
18376,Li19Ni23O42,-1.4714887501587297
18377,LiNbO2,-2.6863822395833346
18378,NbCl4,-1.7467072010000002
18379,LuInNi4,-0.4132240033333338
18380,Cs2KLaF6,-3.558948411886207
18381,YAlPd,-0.8836192738888885
18382,Li3Pr3(TeO6)2,-2.7177341345
18383,LaGa2Pt3,-0.9222386533333337
18384,CoGe,-0.21742825875000005
18385,PrBi,-0.9520362625000001
18386,NdGdIr2,-0.648335620000001
18387,ScB2,-0.8388382277777767
18388,Tm2Mg,-0.04046287444444433
18389,Na3SbSe3,-1.0337379805980607
18390,Si,0.0
18391,K2RbScV2O8,-2.708506668464285
18392,K9U6BiO24,-3.0878997854250003
18393,Er12In3Fe2,-0.21622333117647022
18394,Hg5(ClO2)2,-0.7548285522727276
18395,LaSeF,-3.3028336549479165
18396,Sm5Sb3,-1.0339563637499998
18397,Lu2Zn17,-0.20849882578947343
18398,Cs3Bi2(PS4)3,-0.9410001306896554
18399,CdPd5Se,-0.35848315319196444
18400,FeAg(SeO3)2,-1.2488340243854168
18401,KBePO4,-2.892167847333333
18402,CaCdPd,-0.6006368241666665
18403,TiFeSb,-0.4316054411111108
18404,Na2VF5,-3.146352766325431
18405,Dy2(SO4)3,-2.6626468740808824
18406,RbHF2,-2.487119404375
18407,GdInCu4,-0.2606144083333331
18408,Cs2SnCl6,-1.922349615651341
18409,BaFe2PbO5,-1.9523181075000007
18410,LaGa3Pt,-0.7485578595
18411,Ho7PtI12,-1.5032222000000004
18412,LiTa3N4,-1.3779171170833326
18413,Li12Cu11As12,-0.3743902851428568
18414,Ba2GdReO6,-3.0089736894999994
18415,Pr2Co2I,-0.6379556569999998
18416,Mg3P2,-0.6666889063333329
18417,MnCu2SiSe4,-0.5681589209132536
18418,NaLi2PO4,-2.686550579881465
18419,Ba3UIn2O9,-2.9715907593333335
18420,YbClF,-3.7502475141666665
18421,GePbO3,-1.9292281530000006
18422,HoZnIn,-0.4231692666666671
18423,Eu(InAs)2,-0.601781356
18424,ErNi4B,-0.5073941706944455
18425,ErMg149,-0.025761528533333262
18426,Tm6Al43V4,-0.30389773235849116
18427,Ho3Ge3Ir2,-0.9291307187499998
18428,LaIO,-3.1695352766666662
18429,Ce(Al5Ru)2,-0.515705182692308
18430,Y(MnGe)2,-0.4883900745057474
18431,KCuPO4,-2.2046759200119044
18432,KNd3Te8,-1.4252402119166667
18433,Ce(SiNi)2,-0.7796537109999996
18434,ScSiPt,-1.167235993333333
18435,AlVCo2,-0.4309882399999996
18436,Cs3AsSe4,-1.0770527775835133
18437,SbSeBr,-0.7763327391145834
18438,Ti2AlMo,-0.3226945941666681
18439,LaSb3Pd,-0.8497456070000006
18440,CsAg5Te3,-0.4346601718071518
18441,Y(Al5Re)2,-0.3558074400000001
18442,LiTiAsO5,-2.5605909542708334
18443,AlPH8(CCl2)2,-0.7911779151302083
18444,Sr(PPd)2,-0.8262206286666668
18445,Lu2Au,-0.676161825
18446,ScPPt,-1.2416436044444434
18447,Al37(Fe6Cu)2,-0.32539566882352894
18448,Hf9Mo4As,-0.26425930357142946
18449,MnCuSe4,-0.5164920003843392
18450,Ho2CoGe2,-0.7498904319999994
18451,Eu(Ni2B)6,-0.3614177715789469
18452,LiSiIr2,-0.6974914508333336
18453,Er25Ni49P33,-1.0302689029906538
18454,MgCo2(PO4)2,-2.477082199743591
18455,CsB2P2HO9,-2.6254697146954036
18456,La4Si4I3,-1.1600777486363645
18457,CdAuO2,-0.8983910800000001
18458,Lu3Ga5O12,-2.9902705167500003
18459,V3Au,-0.0361598049999996
18460,Ni3TeO6,-1.3826438665000005
18461,Sr5(CoN2)2,-0.6585889396212123
18462,HoCuPbSe3,-1.2390036057552087
18463,HoZrF7,-4.233209686388888
18464,Sn2PClO4,-2.1396228272916664
18465,Ce(Ge3Pt)4,-0.39084529441176546
18466,Sr2FeCuSO3,-2.1183574745572917
18467,Rb2PbO3,-1.5558054725000006
18468,Y2Te5O13,-2.186391555416668
18469,Sr3SmRhO6,-2.8804331968181818
18470,MgAu2(SO4)4,-1.6557979118478259
18471,TmAu2F9,-2.3934510572222214
18472,Gd2GeO5,-3.2952206593750013
18473,Ba2AsAu,-0.94890006375
18474,HoTl(MoO4)2,-2.3800328104861115
18475,Fe3P,-0.3547081177083342
18476,KCrO2,-2.1239283882500004
18477,K2LiLuCl6,-2.439739303933333
18478,V12Ga2GeS24,-1.1998376970512818
18479,NaZn13,-0.05369478296798036
18480,Fe2Cu3(SeO3)6,-1.2512646225538804
18481,KMgPO4,-2.9168355169761897
18482,Ca20(CdGa3)3,-0.3618002774218749
18483,Cs2NaBiF6,-2.933865489741379
18484,Ba2TlHg,-0.47648569208333313
18485,Fe2PClO4,-2.116662486979167
18486,BaAgSeF,-2.266253480377605
18487,AlPH9(CCl)3,-0.6543049154901965
18488,La2SiSeO4,-3.454550201230469
18489,Ca11Al14O32,-3.4477328635087714
18490,Tb2Se3,-2.1549806159062497
18491,Pr4S3N2,-2.0296068429861105
18492,Dy2SeO2,-3.493861472468749
18493,Rb2LiAsO4,-2.1090262035416667
18494,NpSi2Ni,-0.46390173218749986
18495,SiP2,-0.1251222138888887
18496,PrInPd,-0.772395083888889
18497,Na5OsO6,-1.797935288146551
18498,Ba6Ti5PtO18,-3.2348024898888905
18499,Rb3Ce(PSe4)2,-1.1663264116369052
18500,ErOs2,-0.3475780558333336
18501,Ba2TaBiO6,-2.951542703
18502,DyGa3Cu,-0.4573024844999999
18503,Tm5Co19P12,-0.9037815516203709
18504,NdCo3P2,-0.8562510677777789
18505,FeBO3,-2.2703606938333336
18506,CaZr(PO4)2,-3.278206418888889
18507,LiAgF6,-1.5164943371875004
18508,Tb(FeP3)4,-0.592116872941177
18509,RbMnF4,-2.948310465905173
18510,Cs2NaCeF6,-3.519410011241379
18511,Li3MnV(P2O7)2,-2.6997473220114934
18512,Er2CuSi3,-0.6529660433333339
18513,Ti3P6WO24,-2.879195319117646
18514,Ho4CdPd,-0.45437329041666646
18515,USb2Pd,-0.5367220549999994
18516,ZrSiO4,-3.558760005
18517,Cs3IO5,-1.4918162276436786
18518,YbMgCd2,-0.29310346249999997
18519,CsMo3Br3Cl4,-1.4056433875391847
18520,CaV2O5,-2.801475021250001
18521,La(Sn2Rh)2,-0.6587535228571427
18522,SrTe(HO2)2,-1.9807290011458334
18523,LiLaSn2,-0.6344895908333328
18524,ErIn2Pd,-0.6427948979999997
18525,Sc(VGa2)2,-0.4104262064285708
18526,Li2LaSn,-0.4902471041666665
18527,Ba3CrN3,-0.9091522657142852
18528,Rb(SnAs)3,-0.2539787321428574
18529,NaCeSe2,-1.8703280815598058
18530,YCuGe,-0.6519883638888894
18531,Cs3Re6(SCl)7,-1.3579705824203514
18532,K2LuZr(PO4)3,-3.1895869883421053
18533,CsNpMoO7,-2.503009147168103
18534,Tl2ZnH12(SO7)2,-1.4940790288037633
18535,Eu2B5ClO9,-3.028765526372549
18536,Nd2Si4Ru3Rh,-0.9203938874999992
18537,Ga3Te3Br,-0.736496713214286
18538,Er3Al5O12,-3.71221693225
18539,BaReN3,-0.6995789069999987
18540,NbAu2,-0.11724955000000037
18541,BaNi2(AsO4)2,-1.955326906923077
18542,TbBi2ClO4,-2.4633274187500005
18543,KV(SO4)2,-2.1845065336875003
18544,ErAl,-0.41187016625000084
18545,LiMoN2,-0.6716796833333332
18546,ErTlSe2,-1.6091795020052082
18547,Rb2U(PtS2)3,-1.1996177986458338
18548,Mg2GeS4,-1.270091560714285
18549,Cs2KTmCl6,-2.524737130552874
18550,AlCdCl4,-1.7179333933333336
18551,Cs2CoBr4,-1.5340153233374383
18552,Mg(BeAs)2,-0.3221030299999995
18553,NaIn(IO3)4,-1.1389085175862068
18554,Li3Au,-0.41127635000000007
18555,KUNbO6,-3.2274975631111107
18556,Nd2Pt2O7,-2.348663915909091
18557,CaSn2Ir,-0.5768004424999997
18558,ErCo2,-0.2435738883333336
18559,Sc7BCl12,-2.207669322208333
18560,VZnRu2,-0.21965784
18561,SrZnH6O5,-1.6843270539743593
18562,Tm2Fe3Si5,-0.6618410935833324
18563,Cs2VF6,-3.1649237917624524
18564,Cs7(In2Bi3)2,-0.3357461022363085
18565,NaCuP2O7,-2.2323498112016718
18566,Gd2Au5F21,-2.2077941302678568
18567,Li2MnP2O7,-2.671606328438697
18568,LaTmS3,-2.4737483144583328
18569,Li2SmIn,-0.308134375416667
18570,PrPO4,-3.4462376697222212
18571,SmSi,-0.7577047287499994
18572,YTe,-1.5318984533333335
18573,NaNiIO6,-1.0377788523946363
18574,YGaAu,-0.805069259722222
18575,Sc2NiOs,-0.49746986624999945
18576,LiTl,-0.22958965833333345
18577,LaB2Ir2C,-0.5743631988888881
18578,K4Cu4Cl10O,-1.4979721558947372
18579,SbMoOF9,-2.5516636981250005
18580,ZrCl3,-2.20369939625
18581,Ba3AlAs3,-1.0471620596428568
18582,Nd3(BN2)2,-1.456679947592592
18583,La2InGe2,-0.7662357409999998
18584,KPrF4,-3.9756647204999997
18585,TmOs2,-0.3663634563888891
18586,PuCoC2,-0.13616291874999753
18587,Ca2TlPb,-0.4973856008333333
18588,Tl2PS3,-0.6539439947916664
18589,Ba5Re3ClO15,-2.7915980739583333
18590,In7Pd3,-0.3971813670000003
18591,KEr(CO3)2,-2.5777752558
18592,LuPt3,-1.0836047375
18593,Ca5(GaN2)2,-0.9028505640909091
18594,Rb3MnBr5,-1.760343241436782
18595,RbLi2(IO3)3,-1.4017254344444459
18596,Mg2SnO4,-2.671623306428571
18597,Lu4V5B18,-0.7260467852777773
18598,HoSi,-0.7917891675000002
18599,EuHfF7,-4.026990019166667
18600,CrCu(PSe3)2,-0.5003508060729167
18601,NbAsPCl13,-1.3919254248958337
18602,SrCoP2O7,-2.7655933409848488
18603,LiMgTl2,-0.1502490350000003
18604,Ac2SiAu,-0.56314852625
18605,NaZr2CuF11,-3.470526866936781
18606,Dy(ClO4)3,-0.9868854512500009
18607,Lu(AlCu)6,-0.3465171030769231
18608,Y5(Si7Os2)2,-0.597022464275363
18609,Rb4Nb11O30,-2.9281536388888894
18610,Zr6FeCl14,-2.0775705540476186
18611,Ba6Lu2(WO6)3,-3.1165052879310347
18612,U(Al2Fe)4,-0.3166998253846152
18613,Er2(B2Rh3)3,-0.6326043279411773
18614,Li2P7(H3N)9,-0.4210992156666666
18615,Rb2Al2Sb2O7,-2.527796269230769
18616,Tb6Nb4Al43,-0.3358836477358495
18617,Sm2Ge5Rh3,-0.8102894004999996
18618,Cs2ZnH12(SO7)2,-1.629824277487486
18619,Al2Te5,-0.6262451414285712
18620,BaHg6,-0.2780977457142857
18621,Gd4(SiS4)3,-1.7389362488157907
18622,Hf(AlFe)6,-0.3873441146153847
18623,Ga2Pt,-0.5811223349999999
18624,CsMgI3,-1.497126484586207
18625,ScSnPt,-1.001830913888889
18626,Ho2MgS4,-2.174437016785714
18627,SmPS,-1.730677997569444
18628,K3P11,-0.3153840079047612
18629,K2LiInF6,-3.0268032914333336
18630,ThNi,-0.4315506893750003
18631,Li3Lu(NO3)6,-1.4318387154464287
18632,Al3Ni,-0.4049159087500005
18633,LaPPd,-1.3093053661111114
18634,Cs2UCl6,-2.344278799540229
18635,Ca3(B3Rh4)2,-0.620125605
18636,EuAsPt,-1.08362653
18637,KMo2P3O13,-2.4663260541052643
18638,Fe3(TeO3)4,-1.5640131448684205
18639,LaScS3,-2.3795857788750006
18640,Dy(SiIr)2,-1.0928732940000003
18641,U11Ni16,-0.2509237548148149
18642,RbY(MoO4)2,-2.539800522847223
18643,U2CrN3,-1.3555555091666658
18644,Cs3Zr2P5S18,-1.124395724168206
18645,CaSi2(BO4)2,-3.1941453760256397
18646,PuPbAu2,-0.3412674075000002
18647,ZrH2,-0.6697432566666676
18648,KMg3AlGe3(O5F)2,-2.8109032571499997
18649,U5Re3C8,-0.18060560312499874
18650,Nd26Ga7Co10,-0.24169762145348866
18651,NaCSN,-0.580465199919181
18652,LiCu2F6,-2.1069532075925923
18653,NbZnCo2,-0.17497700750000078
18654,HfAlRh2,-1.0207635700000006
18655,Nd2MnNiO6,-2.7804050977931034
18656,Rb3TmV2O8,-2.729612741369048
18657,Tm3Al5O12,-3.7222613609999997
18658,Cs5Tl11Cd2,-0.11809522701787974
18659,Lu2SO2,-3.6295766406250003
18660,Ta2SnO6,-2.9853883388888898
18661,RbP(HO)2,-1.6195603105555563
18662,Ru,0.0
18663,ErCo5P3,-0.8516390655555549
18664,Ba3TaFe3(SiO7)2,-2.862616086086956
18665,NiPtF6,-1.9212734806250005
18666,UMnFe,-0.08028708597701122
18667,Li2TiCr(PO4)3,-2.8459104440789473
18668,Ca4Si6Pb6Cl2O21,-2.8033399751282055
18669,Ba6Cu11F34,-2.6609884544117657
18670,Nb3V(PO4)6,-2.846898288235294
18671,DyB2Ru3,-0.4733372122222228
18672,BPb2O3F,-2.267197817857143
18673,YBiPt,-1.03304141888889
18674,ZrNiAs,-0.8890704000000001
18675,BaEu2CoO5,-2.699683983333333
18676,BaSeO3,-2.31807994146875
18677,Tb5P12Ru19,-0.8618945937500008
18678,Tl9Pd13,-0.2153038336363635
18679,Rb3Pr3(PS4)4,-1.3932862302243587
18680,SnCl4,-1.4271986910000003
18681,Na3Mg4ScSi8(O11F)2,-3.249015375991379
18682,PbSeO4,-1.4038587545572916
18683,Zr2TcPd,-0.5239393475000007
18684,SrMnN2,-0.8592198192744256
18685,Li2MgPb,-0.26364516416666683
18686,PrIn3,-0.4658225962500002
18687,H3C3N5,-0.2660315252272741
18688,Ce(GePt)2,-0.8994326199999996
18689,BaO,-2.8236447624999994
18690,SbRuSe,-0.6247853241145833
18691,Cr2CdO4,-2.1468546635714287
18692,MgCu2SiSe4,-0.7663104499218747
18693,YB12,-0.2439182797435896
18694,Rb5SiHO5,-2.070765765625
18695,Sm2Ta2Cl2O7,-3.444767724230769
18696,Yb3Ga9Pt2,-0.6410757933928569
18697,Y(PdO2)2,-1.982918236666666
18698,NaSb3(PO5)2,-2.2967389197324
18699,Sn2Sb2Pb4O13,-1.8775855059523814
18700,GdErO3,-3.978522445750001
18701,Al4Ni3,-0.6284309712499996
18702,Ba6Tb2Al4O15,-3.4090676066666674
18703,GdMgZn2,-0.33380318249999963
18704,Nb4NiSe8,-1.0840531252884609
18705,Sb2Pt,-0.4789963874999999
18706,Ba2LaPuO6,-3.400371327500001
18707,Cs3Tm11Te18,-1.604057449285201
18708,NaSb5O13,-1.8753453013974593
18709,NdAl2,-0.5019289333333337
18710,Rb4P2Se9,-0.9454162335173611
18711,K2V(PO4)2,-2.6732306825128203
18712,Y3RuI3,-1.1645921721428576
18713,PrInAu2,-0.6755713712499998
18714,ThAlIr,-0.9725274466666676
18715,AlInSe3,-0.9771713394062507
18716,Li2GdIn,-0.29154099166666736
18717,MnSe2O5,-1.4966559393898171
18718,HoNiGe3,-0.564498099
18719,LiSc2Os,-0.33092574208333314
18720,CoP4O11,-2.431207139739584
18721,K5U(PS4)3,-1.2035637542857143
18722,Mn(PO3)2,-2.595818848844189
18723,Ga2HgSe4,-0.7734035456250002
18724,TaZn2,-0.08928171458333327
18725,CaIn2,-0.42475771999999995
18726,RbEr(WO4)2,-2.673848238958333
18727,Pr7In6Ni5Ge3,-0.5864781809523814
18728,W,0.0
18729,AlNi4Ge,-0.42041163250000047
18730,CaH24(BrN4)2,-0.6364661869285709
18731,Ho2Ni2Pb,-0.5250640680000004
18732,BaAgP,-0.7267306266666663
18733,Yb(CuGe)2,-0.4464779700000001
18734,Ba(Cd2Pt)2,-0.4569982364285714
18735,SrSe2O5,-1.9205329576692707
18736,PrSbTe,-1.391678971666666
18737,CsAsF4,-2.724278048821839
18738,Ba3Dy2WO9,-3.2659022093333334
18739,Ba4(PtO3)3,-2.0752378871875004
18740,U3(CuGe)4,-0.18498861636363725
18741,K4Be3O5,-2.308588006000001
18742,Ba2SnO4,-2.7252458707142857
18743,EuInPd,-0.7010482216666661
18744,V2MoW,-0.09899926250000135
18745,BaGa2GeS6,-1.2261541628750003
18746,Lu6TeO12,-3.6518004315789474
18747,Nb6Zn7,-0.13713753846153928
18748,SrLaHg2,-0.5271301879166665
18749,LiEu2Tl,-0.21297544416666625
18750,LiZnNi2,-0.14180645333333342
18751,Cd(W3Br7)2,-0.9057291615476185
18752,NaInBP2HO9,-2.498499351325671
18753,LiGd(WO4)2,-2.6403217686111113
18754,Ni12P5,-0.47622199862744996
18755,Rb3IO5,-1.4931343680555562
18756,Pr2Be2GeO7,-3.2249234904166664
18757,Mn2CrCo,-0.048539032715517294
18758,Hg(SbS2)4,-0.5225493703846152
18759,HoGa2Co3,-0.3792753133333338
18760,Ca9In(PO4)7,-3.2280762748518512
18761,Nd2SnS5,-1.7430461413281249
18762,Ho5S7,-2.35665955265625
18763,KGdTe4,-1.2278828296666677
18764,CsCr5Se8,-0.9186439297629312
18765,Tm2CuRu,-0.4071193395833337
18766,Co2P,-0.5233345102777776
18767,CuAs2H3OF13,-2.1243068602499995
18768,SrCrO4,-2.449303431527778
18769,K3GaTe3,-1.0573056305714288
18770,BaZnP2O7,-2.8382768746969687
18771,K3NaRe2O9,-2.237414660370115
18772,Sm2In,-0.34255578833333367
18773,CsVP2S7,-0.9269134014975183
18774,LiY(TlCl3)2,-2.0647670111666665
18775,Eu2TlSn,-0.5430412320833335
18776,CaMgCd2,-0.26017435499999997
18777,Nd(SiRh)2,-1.0597471899999995
18778,AgBF4,-2.5796847005555557
18779,La6CoCl11,-2.3773512255555556
18780,GdHfF7,-4.289980584166666
18781,Rb2MgO2,-1.9070924114999996
18782,LuMn2O5,-2.6578031157327597
18783,CdInPd2,-0.47321610749999987
18784,Rb9Fe7(PO4)10,-2.4683471041792933
18785,ThB6,-0.48873194214285676
18786,TlAsH2F10,-2.1523735805952384
18787,YCo5As3,-0.5160687154629634
18788,Cs3InP2,-0.3207563213266287
18789,Ba3Rh(CN)3,-0.6871443630000001
18790,Pr3CuSiS7,-1.8442146851562502
18791,Co2AsClO4,-1.5010346443749993
18792,LiSiB6,-0.20218106479166664
18793,Rb6U3Sb2(PS4)8,-1.0553190109150326
18794,CsScAs2(HO4)2,-2.15148157616174
18795,K2AgP,-0.3443498602499999
18796,Eu2(Ga3Rh)3,-0.6333016255357141
18797,Nd2(Ga3Ru)3,-0.5384551341071427
18798,Na5Tb(MoO4)4,-2.3364498266445626
18799,K3YbV2O8,-2.505985702785715
18800,GdHg,-0.5177033125000001
18801,SnP2O7,-2.526975799166666
18802,K2Be2(Si2O5)3,-3.147472257040001
18803,Na3MgC2BrO6,-2.200336372281168
18804,HfCoSi,-0.831167825833333
18805,Eu(BOs)4,-0.3067881479629635
18806,Ho2TeO6,-3.031915820555556
18807,Rb8Cu6As8S19,-0.8073095320579263
18808,HS2IO8,-1.4214872773958334
18809,NaMg2HSe2O7,-2.0257833347107095
18810,K2CuBr3,-1.5280710935000001
18811,TaMn2,-0.22357185445402314
18812,Sr3SbN,-1.0300624230000004
18813,ZnB3Ir4,-0.2737070521874996
18814,NaAcHg2,-0.3600433997629311
18815,HoPt,-1.2960063062499998
18816,NaIn2Au,-0.2886823503879312
18817,Cs2Ca2Be3F12,-3.708733537676951
18818,NiSeO4,-1.1890706803906248
18819,KYbSiS4,-1.499513314357143
18820,YbNiH3,-0.6689595129999993
18821,NiTeO4,-1.4115444749999995
18822,Co2Ge,-0.1498763375000003
18823,Ba(AsPd)2,-0.7832700090000003
18824,MnAu2,-0.11065940264367906
18825,SrAcTl2,-0.3959634614583334
18826,K2GaP2,-0.46306656428333354
18827,K2TeClF5,-2.632789320388889
18828,Gd2SiO5,-3.7329517428124994
18829,Sb4Br2O5,-1.6175412431818181
18830,Ba2Gd2Si4O13,-3.5312110735714293
18831,SmCrGeO5,-2.8208864578125006
18832,Np(SiIr)2,-0.7566318947499994
18833,Ho2MgAl,-0.26606086500000004
18834,He,0.0
18835,Dy2Fe14B,-0.10893803230392256
18836,Tb5Pb4,-0.5419072702777777
18837,HgO,-0.6380533187500004
18838,Re6Se7Br4,-0.7895757583180144
18839,Ba2Mn(AsO4)2,-2.4592265721485416
18840,ErCo3P2,-0.9477476533333333
18841,Ti5Si4,-0.7589934690740736
18842,Zr10(AlSb)3,-0.6083136912500002
18843,HoCuGe,-0.6861059533333336
18844,TmB4Ru,-0.6542607255555559
18845,LuP,-1.5860484066666665
18846,La2Al(BOs)2,-0.46746397083333385
18847,Rb2In4O7,-1.8966329461538458
18848,ZrInCu2,-0.2211465825000003
18849,Rb2CrCl4,-1.9063762321428566
18850,MnTl(PO3)3,-2.4938044915188837
18851,DyAlNi4,-0.5277094116666667
18852,Ca2IrRhO6,-2.1061847529999995
18853,Mn2Tl2(MoO4)3,-1.9197529923699341
18854,KNd(PO3)4,-2.9160718467407403
18855,YPRu2C,-0.6750307519999993
18856,CeHgAu2,-0.5116009975
18857,LiSmGe2,-0.6550257727083331
18858,CoNiP,-0.5717467750000004
18859,Rb2Si(S2O7)3,-1.981730008291666
18860,Hg2P2S7,-0.49301723350378784
18861,Li3As,-0.71187711375
18862,Yb6Al7Cu16,-0.3071863920689654
18863,Te2Pt,-0.6783594966666661
18864,CsSnSe3,-0.9688896179924569
18865,LaInPt,-0.9826178527777777
18866,CsCaCl3,-2.6423494315862066
18867,Tl2BiP2S7,-0.6740573214756947
18868,YNi,-0.431824902083334
18869,KV3(PbO3)4,-2.1302893556499995
18870,XeF3,-0.8369024512500003
18871,TaRu,-0.3195378524999999
18872,TiGeIr,-0.7187875402777794
18873,TiPCl7O,-1.838212991041667
18874,CrHgO4,-1.298559741666666
18875,TbSnPt,-1.0891517761111114
18876,ErF3,-4.471652089375
18877,Nd(SiAg)2,-0.40862737066666666
18878,LaPaO4,-4.139057760833334
18879,Li2MgSn,-0.3489963654166668
18880,Cd(GaSe2)2,-0.8906563577678567
18881,Zn3(AsO4)2,-1.7738707661538458
18882,Ba8U3(HgS6)3,-1.8556281862890625
18883,Mo2P2PbO12,-2.2484677706862746
18884,LiFe(GeO3)2,-2.0714191978333334
18885,Hg3Bi2(SCl4)2,-1.1012904480833337
18886,K2Ni3S4,-0.9497573365000002
18887,Ba4Na(BN2)3,-1.1259091524322662
18888,HfSnS3,-1.4324536963750005
18889,NaAuO2,-1.1124653166379308
18890,Rb2UH4(ClO)4,-2.1042318723333326
18891,Y2MgCu2,-0.2384414756666672
18892,Rb2NaHoF6,-3.5995992986551726
18893,LaH2,-0.7445459283333337
18894,K4Na2H18Pd(IO10)2,-1.3686216239383717