,formula_pretty,formation_energy_per_atom
14251,KNdF4,-3.9827288550833324
14252,AlCuGeSe4,-0.7430883706249993
14253,RbSnS4,-0.9113951384375003
14254,GdTlPd,-0.6608019788888903
14255,Rb4Fe8CuH6(Se8O25)2,-1.4562949860882353
14256,EuZnSi,-0.469543625
14257,CdSnAu,-0.1948134916666664
14258,CeMgAu2,-0.6565139937499995
14259,Tm2Mn2O7,-2.9302197003813997
14260,La(PRh)2,-1.1291817453333337
14261,CsPF6,-3.1151831045330454
14262,Eu(AlGe)2,-0.4255995630000001
14263,SmGe2Pd,-0.7930354637499999
14264,Pr(BRu)2,-0.4980327596666669
14265,Na5Tb4Si4O16F,-3.3203329291752874
14266,Cu3B5Pt9,-0.21044592975490126
14267,K3LuF6,-3.6386413743999997
14268,Li2PNO2,-2.173641083333333
14269,Eu(CuGe)2,-0.42868460699999955
14270,CsNpCl2O3,-2.588460434883006
14271,CsAuSe3,-0.7752888809924571
14272,Sr2CdPb,-0.49466093583333315
14273,Zr3NiSb7,-0.628732823636364
14274,HfSiS,-1.2885403127083326
14275,Sr3TeO6,-2.7494628504999996
14276,Mo,0.0
14277,Y10Ga3Co7,-0.3483723179583336
14278,KF3,-1.6456951198125005
14279,TaVO5,-2.8904530653571436
14280,Ni3Pt,-0.06934912249999936
14281,MgVO3,-2.774963967
14282,Ba7Al64O103,-3.447888785545978
14283,Er2MgCu2,-0.24047201599999965
14284,PI2,-0.3141306561111114
14285,Fe3(P2O7)2,-2.407808237896824
14286,Ba2CoSe2(ClO3)2,-2.094737888822116
14287,Ca3Si2SnO9,-3.1988717966666673
14288,Na3Ga(PO4)2,-2.5870780499158452
14289,La3PtI3,-1.4911627035714285
14290,Y11(In3Ge2)2,-0.6908592782539678
14291,Ho2P7Rh12,-0.9222708758730161
14292,Zn53Co7,-0.08963275008333345
14293,CsCeF5,-3.833772796311577
14294,MgHgPd2,-0.4750979662499999
14295,Nd3Si11Pt23,-0.884755395405406
14296,LuCoSi,-0.7533806391666668
14297,Sm2Ni12As7,-0.5362906830952373
14298,Hf2Be17,-0.2282001064912286
14299,HfInCo2,-0.28832209750000004
14300,OsCl2O,-1.1479530625
14301,Na4Sn(GeS3)2,-1.0391425053813
14302,MgS2,-1.16513710875
14303,TiZnN2,-1.0288920770833334
14304,Sr2(PPd)3,-0.9085677451041674
14305,Rb2Te5,-0.8410601992857144
14306,CeGa2Co3,-0.3887954208333334
14307,Tb2Sb5,-0.7879953335714285
14308,Ni3Sb4(OF)6,-2.0337335421052636
14309,Mg5Ta(BO4)3,-3.1076532019047614
14310,ZrNF,-2.7466220333333347
14311,EuAs3,-0.6266898987500005
14312,LiGaIr,-0.4357849819444439
14313,Sr3Se2(ClO3)2,-2.4714862080528843
14314,Zr3S4,-1.8613222123214288
14315,HoB4Rh,-0.617481865277778
14316,Na3Er(PO4)2,-2.9534381257194164
14317,B2Pb6SO12,-1.9778669868551584
14318,Np(Al2Fe)4,-0.3111761791346164
14319,HfZnAu2,-0.43942596500000075
14320,TlGeBr3,-1.0285404541666665
14321,CsGaCuF6,-2.6414347083812255
14322,Ce(SO4)2,-2.429318861590909
14323,LaSeS,-2.156507468489584
14324,KTaSi2O7,-3.2147298886818176
14325,ZrSO,-2.8474194235416674
14326,PrH3,-0.6254213675000004
14327,DyTiGe,-0.6893262727777779
14328,Sm4Se3O4,-3.1658010315482956
14329,Er4CdIr,-0.5386741454166663
14330,NbNiGe,-0.4951930124999997
14331,Cs3MnH5,-0.1711323746360153
14332,Tb4MgCo,-0.1456360912500004
14333,Al6CoCu3,-0.3016765265000004
14334,Mg4Ta2O9,-3.249573476333334
14335,Sm2IrRh,-0.7117512625
14336,Fe6W6C,-0.0549488819230773
14337,Th2SbN2,-1.7123857420000008
14338,Tb6CoCl10,-2.212795440294118
14339,Nd3HfSb5,-1.0343238577777782
14340,Ba(AlGe)2,-0.39657863600000026
14341,CaPbI6,-1.0708962012500005
14342,RbZr6CI14,-1.2666936387500007
14343,NbSbRu,-0.4812340816666669
14344,Dy3Pd2,-0.7330331780000001
14345,PrClO,-3.4583278466666663
14346,GdMoClO4,-2.6699590099999995
14347,SnHg2(SBr)2,-0.713699873392857
14348,HfGePd,-0.8280387622222231
14349,MgTe,-1.0866360074999997
14350,Li2SbPd,-0.6619163316666663
14351,Yb(PPd)2,-0.9188519693333334
14352,BeFeRh2,-0.3262075587499993
14353,Sc11Ru4,-0.40449700133333316
14354,Ba2Mg17,-0.056612318421052896
14355,Cs2CuF6,-2.2822790700957847
14356,Na4SnTe4,-0.885871632078544
14357,Rb(AsRu)2,-0.39482693749999953
14358,CsZr6CI14,-1.2766107678605019
14359,HgAsO3,-1.3655789200000001
14360,Sn2W3Cl14,-1.3319771681578942
14361,Na4Ca2SiAs4,-0.6838595687460814
14362,Co3H2Se3O10,-1.3123620020572924
14363,BaNiP2O7,-2.740583361969696
14364,LuAsO4,-2.8583330241666665
14365,K2NaH10IO10,-1.3781884801063224
14366,YbTmRh2,-0.8230888541666666
14367,CsBaI3,-1.9249851780862073
14368,YAgGe,-0.6681787405555547
14369,Ca11Sb10,-1.037130466428571
14370,Ti6Si7Ni16,-0.6861544179310343
14371,Tl2NiF4,-2.1392720723809524
14372,CsGaH24(SO10)2,-1.4817845560766887
14373,ErInRh,-0.7534860866666675
14374,Ce2AlRu2,-0.5166469159999991
14375,RbY(WO4)2,-2.6631572303472217
14376,LaCoSi2,-0.6968217425000001
14377,CsLuS2,-2.0539120835452582
14378,U2Nb3Si4,-0.4946896861111109
14379,CdSeO4,-1.3162829737239583
14380,Ho5Zr3(Ni4As3)4,-0.8265077025000002
14381,Lu2IrRh,-1.0260926149999996
14382,La2Mn2Se2O3,-2.5888528417277286
14383,ZrCo3B2,-0.5682562888888896
14384,Ba5Mn3ClO12,-2.4959918977996716
14385,Rb2LaCl5,-2.6071809615625
14386,Zr2VCo3,-0.32810042916666643
14387,ZrRh,-0.7970212475
14388,Cs3Nb2Se11,-1.103562817629646
14389,CaAu5,-0.40725528666666655
14390,LiCd2Pd,-0.40488165333333326
14391,ThAsSe,-1.589333335781251
14392,B9Pb8O21F,-2.3685697164102564
14393,Ca5Al2(SiN4)2,-1.3824658799999998
14394,Zr(FeGe)6,-0.25490965230769275
14395,CdPd,-0.41008540999999976
14396,CrH20N2O6F5,-1.4183366431617648
14397,Na3LuBr6,-2.0054603184655178
14398,Li2UBr6,-1.8041077535185186
14399,SmCdGa,-0.5254288963888887
14400,Zr4Cd(PO4)6,-3.111461174571429
14401,PCl3O,-1.5843036276666667
14402,Cs2Cd2(MoO4)3,-1.9986995533348455
14403,CeTlP2S7,-1.076272789261363
14404,Li(FeGe)6,-0.1896648538461541
14405,KMn3O6,-1.967467929679311
14406,CsCr5S8,-1.0879278537807875
14407,LiYSn,-0.6791718341666672
14408,BeNi,-0.46828125249999974
14409,BeP2,-0.3208304118055552
14410,NdIr2,-0.7126751533333326
14411,NaYb(PS3)2,-1.0936585256968392
14412,Na2Pr4Br9NO,-2.3218445056237327
14413,Er(IO3)3,-1.4905920500000014
14414,La5Sb4(O4F)3,-3.1889970525
14415,YTiGe,-0.7098813450000007
14416,TiCoSb,-0.7251703294444442
14417,RbYBeF6,-3.880958517685185
14418,NaAl(SO4)2,-2.3074325452334765
14419,Np2Tc3Ge4,-0.27805807361111096
14420,Ta2CrRe,-0.25054915875000106
14421,InClO,-1.8170773583333333
14422,Lu5Ge4,-0.8263052855555557
14423,Zr5Sb3S,-1.057799322013889
14424,BaSi2,-0.3128972954166673
14425,TmTl(WO4)2,-2.513463082500001
14426,Ce2AlGaNi2,-0.5932143756944441
14427,InTeI7,-0.5848852923611108
14428,RbCeTe2,-1.5564924806249998
14429,NdDyTl2,-0.361862359166667
14430,Th2NiB10,-0.5974298585897432
14431,ScNiP,-1.2034788686111106
14432,K5Nb3O3F14,-3.2788722981
14433,AlTlSi3O8,-3.082811931025641
14434,La(CoAs)2,-0.7626082390000007
14435,Al2CoCl8,-1.70438665
14436,Yb3Ge8,-0.4229272277272726
14437,Na3B3H2O7,-2.3612381284770105
14438,Si3Os2,-0.451494172000001
14439,KSnSb,-0.39827065933333355
14440,KHO,-1.553805666
14441,TmSnPd,-0.9236962427777774
14442,Sr(Mo3S4)2,-1.1606359921111116
14443,Gd4Co3,-0.13452207785714368
14444,GdAlNi,-0.5799588811111107
14445,Sb7Pd20,-0.44335180074074076
14446,HoB4Ru,-0.6425874348611108
14447,K2GeTe4,-0.7901242201428573
14448,KAl(BH4)4,-0.31815543271212154
14449,DySi2Ni,-0.8378652962500004
14450,La3Te4Br,-1.9528099093750004
14451,Mn9Zn6Si4(SbO14)2,-2.2917423894159037
14452,CeGa3Pd,-0.6853307404999995
14453,Ti(SO4)2,-2.215272986931818
14454,Tb2B6Os,-0.633424420833332
14455,Na2(GaSb)3,-0.33874100757543113
14456,NaGaBr4,-1.4804143040086204
14457,MnPH2O5,-2.0886618354182627
14458,Ba6Na2Nb2V2O17,-3.0134067085552925
14459,La5Ir3,-0.6708543025000004
14460,Ca5P8,-0.9037372205128208
14461,Yb2PtAu,-1.0395072674999994
14462,CsCaI3,-1.8435194280862066
14463,Li3V2P4(HO8)2,-2.598301842345679
14464,Ce(Al10Cr)2,-0.17078989760869512
14465,LiZnPO4,-2.5532315047023806
14466,Ca(AlCl4)2,-2.226241904090909
14467,YTa3O9,-3.512674740128207
14468,BaCdSn,-0.5281476116666664
14469,Na3MnS2(O4F)2,-2.2786801077397634
14470,Nb4Ni2C,-0.34074750107142954
14471,Ce2O3,-3.769795566250001
14472,ZnF2,-2.6029855116666663
14473,Sr2LuNbO6,-3.5244464098333332
14474,Ba2NdIrO6,-2.693516273000001
14475,MnAu4,-0.07754984558620706
14476,Zn2Hg2OF6,-2.0404656722727275
14477,ZnSb3XeF23,-2.175147444464286
14478,Cu2PO4F,-1.8593599054166665
14479,KB5O8,-2.8439310570595233
14480,B5H7,-0.18722790059027794
14481,Y4TiSi2(O3F2)3,-3.9390429129545455
14482,Ca3MnN3,-1.0259644011330045
14483,CoCO3,-1.6714624369999995
14484,Sr2TlPb,-0.49214799666666664
14485,Ce2MgNi2,-0.3139940419999995
14486,HoSI,-2.109408984375
14487,In2(PSe3)3,-0.5484567173995535
14488,LiMg2Au,-0.4756817558333335
14489,Eu3(MgSi)5,-0.3745384467307684
14490,Pr(BIr)4,-0.5610929274074073
14491,YbB4,-0.4692663163333329
14492,Li2LaIn,-0.31602738291666643
14493,Sr4SiP4,-1.0234952397222221
14494,CuSe2O5,-1.1336862874609386
14495,ReN,-0.13426834666666684
14496,Tm(AlGe)2,-0.38122395733333364
14497,Zr3Bi,-0.24504459937500034
14498,Sr4Al6SeO12,-3.3714774151743665
14499,Tm2CoGe2,-0.7524303506666662
14500,AlCuS2,-1.0604500028125
14501,Sr8Mn2FeN8,-0.8450149610102844
14502,CeZnGa,-0.4603397808333334
14503,PSeCl9,-0.983251387788826
14504,YbPrHg2,-0.5752261037499999
14505,Ho5Ir2,-0.6797212464285707
14506,Tm2Fe17C3,-0.08990644856060535
14507,BaP2(HO2)4,-2.324648941111111
14508,GaH9(NF)3,-1.1584569121875
14509,ErCoO3,-2.6581470224999997
14510,BaNaH6Ir,-0.6320977829501915
14511,Rb2PdCl6,-1.5750569105555552
14512,Sr4Mn3(ClO4)2,-2.6179089212035156
14513,ScSiRu,-0.902800246666668
14514,Ba2MnGe2O7,-2.6160242506609195
14515,NbTlO3,-2.4549113969166667
14516,Ba3(SnP2)2,-0.7648808314814812
14517,VF5,-2.806483084166667
14518,CuSb6(SO8)2,-1.75247655265
14519,Pu(SiRh)2,-0.9207994380000002
14520,LuInAg2,-0.3349041083333333
14521,DyMgAu2,-0.7814922525000001
14522,K3Na(SeO4)2,-1.7976068639456588
14523,Cs2AgSbS4,-0.9023006743785915
14524,Sm3InN,-0.9875249240000002
14525,SrUI6,-1.4664313802083333
14526,Ba4NaAl2B8(ClO6)3,-3.0822151965245865
14527,Dy2Re2Si2C,-0.6014712171428575
14528,TaMnSi,-0.5475550020881236
14529,CsSbSe2,-0.9420078275296335
14530,Er3In5,-0.416456416875
14531,Li3FeF6,-2.985288403333334
14532,Tm2C,-0.34226087444444414
14533,Na2Si2S5,-1.1950239223587171
14534,YSiOs2C,-0.5104431553333342
14535,Dy3Se3N,-2.0933864220758918
14536,CaO,-3.3060156124999995
14537,CsSm2Ag3Te5,-1.0921927816300938
14538,V2PS10,-0.8541753685256409
14539,Cs2WO4,-2.2557589101231525
14540,KYbBr3,-2.3084311610999997
14541,Mg149I,-0.02410726169999994
14542,Rb2Be3Cd2F12,-3.1423416057894737
14543,Ti5Se4,-1.2695834195601847
14544,BaTi2O5,-3.532110972083334
14545,VN3O10,-1.1224264833928572
14546,Zr3(CuSi)4,-0.5582203909090908
14547,NdAg,-0.2553655733333331
14548,Er2CdCu2,-0.301352859
14549,Rb(Nb3Se4)2,-1.1478059257499997
14550,Ce2Te4Cl2O11,-2.2291619849999993
14551,Mg2Pb,-0.05642642333333351
14552,LiAc2Ga,-0.21400910395833384
14553,La3TlC,-0.2916674796666669
14554,PtI3,-0.4311233968749999
14555,SrMn2(PO4)2,-2.817646162438109
14556,Pr2CdSb4,-0.8184133857142858
14557,Ca2B6O11,-3.066904042236841
14558,Pr(Re2Si)2,-0.4040088535714282
14559,Gd2MgAl,-0.272459845000002
14560,TiMo2W,-0.1377135833333334
14561,Be5Au,-0.08535223250000001
14562,P10Au7I,-0.15930908657407392
14563,TbGaI,-1.1761777874999997
14564,Tm5(Si5Ir2)2,-0.8556969062280697
14565,SrU(PS4)2,-1.2252704646527774
14566,ScNbOs2,-0.43190571375
14567,Hf6Al16Pt7,-0.8690628837931038
14568,Sn(PS3)2,-0.6022019089351858
14569,Sr13Al6Si8O,-0.5840277972023807
14570,YbCO3,-2.8146103005
14571,Ba6Dy2Ga4O15,-2.9986463029629635
14572,RbLu(SO4)2,-2.563597916979166
14573,Na(SnAs)2,-0.23251868131034498
14574,Eu2Si5Pt3,-0.8466181814999985
14575,DyRh3C,-0.5056718460000014
14576,EuIn2Ni,-0.36898099750000046
14577,Ba2PbO4,-2.3690410357142855
14578,NaNb10O18,-2.783687149536267
14579,SrPrNiRuO6,-2.3902167051666665
14580,YbCu4Pd,-0.3595830166666663
14581,MgZrAu2,-0.6074847100000005
14582,Na4Cd3H2(C2O7)2,-1.8353730028224768
14583,CsMo4(PO4)7,-2.4585847825316085
14584,Sc6Al16Rh7,-0.8293289617241373
14585,Sc3As2,-1.1660885340000007
14586,Ba(LuSe2)2,-2.217663880982143
14587,In7GeIrO8,-1.6460622091176471
14588,CdHg6(Sb2I3)2,-0.413108606911765
14589,Eu2H3Br,-1.1280834420833326
14590,SbSe(IF2)3,-1.8241410397585227
14591,Mg2MnGa3,-0.16408981340517256
14592,Ba2In2S5,-1.5845900138194446
14593,SrTiGeO5,-3.0445364028125006
14594,Zr2CoOs,-0.4307191400000008
14595,BaZnSnS4,-1.3309925662499995
14596,CsMnP3HO10,-2.487576969428879
14597,BPBr6,-0.8722525224999997
14598,Na2TcF6,-2.6991341253448278
14599,Ba2As2S5,-1.3719472443749998
14600,Li2UO4,-3.1431914013095232
14601,LuTe,-1.3406825100000006
14602,NdMgTl,-0.3550159522222221
14603,Sc2CoRu,-0.4775799224999995
14604,Mg3Cu2(AsO4)3,-2.05122229825
14605,Sr2CuH6,-0.4500645375925928
14606,TbNiC2,-0.33142177999999944
14607,LuPPd,-1.2634701386111107
14608,GaNi3,-0.2902063768749992
14609,IF5,-1.9712836290833333
14610,YbDyHg2,-0.5689549875
14611,Li2GaRh,-0.48710504104166663
14612,BaZnCuF7,-2.74596024
14613,KCe(PO3)4,-2.8963628013240745
14614,Rb4V5CdClO15,-2.3442288421153856
14615,Rb2Ag2GeS4,-0.8864962562037041
14616,Th(NiGe)2,-0.706208298
14617,Cs2Li2SiO4,-2.471690085836526
14618,LiTaO3,-3.127170326666667
14619,Na5Ce3Ti6Nb2O24,-3.3027592811939663
14620,Mo6PbI14,-0.6882223765476189
14621,Sm(BOs)4,-0.38543761740740795
14622,SrLaTaMnO6,-3.318197237209772
14623,Al2(SeO4)3,-1.7608418939430146
14624,SrAl2(SiO4)2,-3.4431226516666666
14625,TiMn2,-0.2721584388984688
14626,Ba3GaS4Cl,-2.1311425061111104
14627,Ba14Na14CaN6,-0.3235309480492609
14628,Ba2PrRuO6,-2.7428502240000006
14629,TbSnPt2,-0.9977893725000007
14630,K(SiAs)3,-0.2572773668571432
14631,LiMg2Pd,-0.47421524083333333
14632,RbAlCu(PO4)2,-2.6169954303205123
14633,NaCrF4,-3.0712583110919542
14634,LaDyTl2,-0.382905292916667
14635,K3Ga3As4,-0.4638368508999996
14636,LiMn2O4,-2.068296557504106
14637,GdCoSi,-0.7083371483333316
14638,DyAlZn,-0.4551460050000002
14639,Nb2As,-0.5271343416666673
14640,Cs3NaPb4,-0.24288376816810375
14641,CdPt3,-0.17910277000000008
14642,Cs2LiTmCl6,-2.492332860586206
14643,Ba(InP)2,-0.5610685793333332
14644,NaBrF4,-1.8978018848419538
14645,Ba(PdO2)2,-1.5184776164285714
14646,Tb4CdCo,-0.2426024762500004
14647,Ba3(AlAs2)2,-0.9553055641666661
14648,LuTa6Br13O3,-1.8202950622826084
14649,Li8Bi2PdO10,-1.843717397460318
14650,Lu(Fe5Si)2,-0.2489443299999994
14651,LiSb3O8,-1.9601458102777773
14652,La4InSbS9,-1.9094948059583337
14653,LiEuSb,-1.0053455144444452
14654,Dy3Ge5,-0.7101844312500001
14655,CsTaV2O8,-2.7099367842025863
14656,TbB2Ir3,-0.6916555047222227
14657,Rb2NaCrF6,-3.119709260655173
14658,ScIn2,-0.3545887349999995
14659,CaTbHg2,-0.5351931924999997
14660,CeMgSi2,-0.4880238062500002
14661,NdZnPd,-0.6950127611111117
14662,Be3Cd4Si3TeO12,-2.5652579134782614
14663,LiGd2Ir,-0.521346100833334
14664,RbInBr4,-1.5538548220833335
14665,SmTa6Br13O3,-1.818553704782608
14666,VGaCo2,-0.31484435687500056
14667,Cu2SiHgSe4,-0.513439773671875
14668,SrTi3Al8O19,-3.4658150432795702
14669,Ba2InO3F,-2.867512523928572
14670,Ba2NdRuO6,-2.7617002375
14671,Ca3TiBe2Si2(As3O10)2,-2.665286021862745
14672,PrMgTl,-0.35641815055555565
14673,TmMgAu,-0.6802933111111105
14674,SrB6,-0.4503798302380945
14675,TbTmIn2,-0.44135771166666693
14676,Cs2RbFeF6,-2.9297816388362063
14677,CsFeAgF6,-2.3741716043997445
14678,SrCaDyBiO6,-2.8335430046666668
14679,Ce5BiSb4,-1.0920216194999994
14680,La5Ga3,-0.46157926999999965
14681,Ho8In3Co,-0.3475132162499997
14682,Ca2Cu2O5,-2.070055870833334
14683,ZrGeOs,-0.6182100588888899
14684,Rb2Ca2(SO4)3,-2.533975535888158
14685,CsPPbS4,-0.9802770651806237
14686,La5(BN3)2,-1.5131476125641017
14687,HoBr3,-2.2405649143750006
14688,PrSn2,-0.6398871016666661
14689,SiPd2,-0.6660063000000002
14690,CaAcAu2,-0.8017878056249996
14691,Ba3Ta2CoO9,-3.167006316
14692,Lu6H40N8O49,-1.5733747950000005
14693,K2NbCuS4,-1.2995873085624998
14694,NaYb(Pd3O4)2,-1.3731019660344828
14695,EuRh2,-0.4405852449999988
14696,EuNi2B2C,-0.3567423422222227
14697,Re3Pd,-0.056310279999999935
14698,LiEu3SiCl3O4,-3.036119346319444
14699,NaBeAs,-0.38975037051724176
14700,Hf3(Cu2Si)2,-0.4833867411111099
14701,SrMgNiH4,-0.5212661666666669
14702,YbYPt2,-1.1701201916666664
14703,Tb2InGe2,-0.7177024100000005
14704,K3Mo12PO40,-2.066788591202381
14705,U2Re2C3,-0.1796407371428574
14706,Na2BiAsCO7,-1.9433129540086203
14707,BaCo2Si2O7,-2.6830101391666656
14708,CsGa2P5O16,-2.614899177691571
14709,LiAc2Si,-0.17384034458333364
14710,La(SiPt)2,-1.0947415820000004
14711,Cr5O12,-1.8322077199999995
14712,CaMg2,-0.10608171583333299
14713,Nd3Sn5Au6,-0.6093458421428569
14714,Li(ErGe)4,-0.8235746987037034
14715,CsYHgSe3,-1.4644298186048257
14716,Sr2LiSc(B2O5)2,-3.1807219225462964
14717,LiCu2Si,-0.20740252583333296
14718,HoAu2,-0.8729419966666665
14719,Tb(GeRu)2,-0.6558678579999991
14720,SrPPt,-1.0931137133333337
14721,Dy2Al,-0.2869621450000004
14722,BaCrP2O7,-2.89036653969697
14723,Na2Ge(S2O7)3,-1.8586208753117812
14724,Ho2NiB10,-0.5008906558974349
14725,TbS,-2.2582175065624996
14726,ErB4Rh,-0.6244984711111113
14727,CaFeClO2,-2.374020657
14728,ThSb2,-0.8987116350000003
14729,Ca6Sn2NF,-1.3149862557500007
14730,CdGaRh2,-0.36674514687500004
14731,BaGa2,-0.4633115416666662
14732,Dy4Ga12Pd,-0.6118268982352942
14733,Na2MgPO4F,-2.924088770715198
14734,LiGa,-0.3152172379166669
14735,KNpAgS3,-1.3311211087986117
14736,Li5Mn7O16,-2.0672671941851397
14737,PPdS,-0.5957760971527778
14738,ErInNi4,-0.40286622166666675
14739,Nd3Lu2(GaO4)3,-3.3781893306250006
14740,TaFeP,-0.8397248569444441
14741,RbCOF3,-2.3212426558333337
14742,Gd2MgIn,-0.3398810525000009
14743,KPr(SeO4)2,-2.0111151923072916
14744,YbPrAu2,-0.87881971875
14745,Eu2MgSi2O7,-3.3437522233333326
14746,MnAgPO4,-2.1205654061330046
14747,YH5(SeO4)2,-1.7286344977408854
14748,CeSi,-0.6208211162500001
14749,U(CuSi)2,-0.2346313979999998
14750,Gd2ZrS5,-2.198669920390625
14751,SrCu2Te2(ClO3)2,-1.6493824593589745
14752,GdSn2,-0.6043903716666676
14753,KSmGeSe4,-1.4052498546249999
14754,Eu3OsO7,-2.727771219545453
14755,LiTbGe,-0.7142561238888889
14756,Na5IO6,-1.6639146056465517
14757,Th2SbNO,-2.4513401680000015
14758,Mn7SbAsO12,-2.0036658150246303
14759,Eu2CoPtO6,-2.2125965230000006
14760,Na2TlPCO7,-2.1141866008141754
14761,V3Bi(PbO4)3,-2.110750352631578
14762,PmSbPd2,-0.8224928093750004
14763,CeNi,-0.31436567500000034
14764,Hf(Ni2P)2,-0.7713614380952377
14765,Hg3Bi2(TeCl4)2,-1.1085629270000004
14766,NaNd(GaS2)4,-1.3108319488608378
14767,MnBi4S7,-0.6707363924838367
14768,K2NaCuF6,-2.5846332277551722
14769,K4Eu(PS4)2,-1.3340625202444447
14770,CsAlCuF6,-3.045723551159004
14771,Th4P6O23,-3.3942940506060606
14772,Y3BCl3,-1.7819997091666673
14773,Dy9Al5S21,-2.016062877017857
14774,Co3Pt,-0.0946174399999995
14775,NaMgSb,-0.5730061305172415
14776,HoMgIn,-0.3758172322222223
14777,K2BiAu,-0.42889774525000046
14778,V3Re,-0.2663111637500002
14779,Cs5U2S4ICl8,-2.020126116357759
14780,NdOsO4,-2.470055245416667
14781,CaSi3Ir,-0.63401383
14782,Er(CuO2)2,-2.092032177857142
14783,CsVSeO5,-1.9872135219093483
14784,CoSi,-0.5803951925000002
14785,K2BiPCO7,-2.2856776436944437
14786,Rb3As7,-0.3644505950625003
14787,SrInAu,-0.6490816630555555
14788,PuSe2,-1.6166881998958331
14789,CoSb2Br2O3,-1.4642253715625007
14790,Tm2(Ga3Co)3,-0.476223073273809
14791,LaInAg2,-0.36898596208333334
14792,Eu2Ge3Au,-0.6513200058333339
14793,PrGeAu,-0.8266953233333337
14794,Eu2MgIn,-0.28112080250000027
14795,TiSb2,-0.5189937427777783
14796,Ho(NiB)2,-0.5657939696666674
14797,BaNaBi,-0.7619470677394639
14798,KAuCl4,-1.3219672746666664
14799,Ce(BRu)4,-0.5306122271296295
14800,Ce10Se19,-1.9670747361907324
14801,Na3Sr3GaAs4,-0.8231769170141067
14802,Rh3W,-0.26208491125000144
14803,US3,-1.4835467610937503
14804,Y6OsI10,-1.430798947352942
14805,Hf2Al3Ag,-0.35909276611111096
14806,Ba(AlSi)2,-0.269389898
14807,Ga2PbO4,-2.070018908571428
14808,Sr2FeIrO6,-2.222434192333334
14809,ErRh,-0.9467521650000004
14810,PaSiTc2,-0.3030395575
14811,Tb(SiRh)2,-1.1215339740000005
14812,Pm2NiIr,-0.48850562375000006
14813,Ba2GdC2(O2F)3,-3.1905082983928574
14814,ScTlSe2,-1.4887621707552077
14815,Eu(POs)2,-0.6889626323333331
14816,Y20Si12C,-0.7102173649494957
14817,KLuS2,-2.1241478498124993
14818,Yb5Bi3,-0.8028179618750002
14819,K3SbO4,-1.8852687936249994
14820,Lu8In3Co,-0.3541760008333335
14821,Zr5Re24,-0.2198988741379312
14822,Sr(B2Pt3)2,-0.423699124848484
14823,Sc2Ga3Cu,-0.5476694204166664
14824,K2PdBr6,-1.3115998823333337
14825,LaSF,-3.4207003635416675
14826,LiLa(PO3)4,-2.9429343953703713
14827,Y2Al,-0.31470185694444436
14828,CsSO3F,-2.262893817676007
14829,DyMn2O5,-2.6537641432327597
14830,B3H4NO5,-1.9520506932692319