,formula_pretty,formation_energy_per_atom
22949,LuCuPb,-0.3322900216666665
22950,V4Fe2O13,-2.182784400263158
22951,Sm2MnSbO7,-2.9112157625391855
22952,Dy(FeGe)2,-0.45679220199999976
22953,GdZnPO,-2.030213332083334
22954,La2AlNi9,-0.3754237941666669
22955,YbInPd,-0.7737797577777781
22956,Gd2NiPtO6,-2.5141468959999997
22957,RbUAgS3,-1.3711697414236113
22958,Sr2FeCu(PbO3)2,-1.9915196806944444
22959,K3UO2F5,-3.4138801515
22960,PmGaRh2,-0.6734269587500004
22961,Nd5Tl3,-0.3188312474999999
22962,Sr19In8N7,-0.5897227850490196
22963,KHoF4,-4.032613474574074
22964,AsSe6IF6,-1.3144097117187503
22965,CeCuSi2Ni,-0.663825679
22966,Mn2V3Fe(PO4)6,-2.5670334493295024
22967,La5Ge3,-0.6954362168749997
22968,Ca(Al2Cu)4,-0.2665357153846158
22969,H3N,-0.42268144625000037
22970,Eu(SiRu)2,-0.7290422089999993
22971,VBi(PbO3)2,-1.9162624516250006
22972,AlAs3(SeCl)4,-1.033203099947917
22973,KPb2Cl5,-1.751087277875
22974,Eu3Tl,-0.18626371958333188
22975,SrTl2,-0.3384702677777778
22976,ZrPOs,-0.9268508077777788
22977,Y2(B2Rh3)3,-0.6329221799019602
22978,Rb3Hg2S3ClO12,-1.861478255565476
22979,AgPdF6,-1.5411022170833335
22980,ScZn3,-0.31313379249999995
22981,CeBiRh,-0.726554030833333
22982,WOF3,-2.6119235105
22983,Ag,0.0
22984,Rb2W(OF2)2,-2.6829481716666663
22985,CsAg3Se2,-0.5872994637697561
22986,Ag4TeO5,-0.7754177806666668
22987,Li2VCrP2(O4F)2,-2.8024592765624994
22988,NaSrNb2O6,-3.0336897893218393
22989,Te3As2,-0.014905971999999679
22990,KNd(SeO4)2,-2.008114075848958
22991,CsK2PdF5,-2.531295607936782
22992,Eu(AgGe)2,-0.3640224856666663
22993,Pr3Sn5Au6,-0.6180705139285715
22994,BaB2S3O13,-2.3155944193530704
22995,Ba3GeO,-1.4398025520000002
22996,Li2DyTl,-0.22697970999999972
22997,Sc2MnSe4,-1.612533826043718
22998,NaGeAu,-0.30527253385057485
22999,AcTlRh2,-0.32620018895833347
23000,Sr2Cu(PO4)2,-2.884617436153846
23001,GdMgGa,-0.4945548769444454
23002,Zr6Be15Ni8,-0.38741353810344836
23003,K2S,-1.2226776997083337
23004,Li3SmSb2,-0.8990739975000004
23005,Dy4Ga12Fe,-0.5287188294117643
23006,Nd(GePt)2,-0.9143904480000004
23007,BaTiO3,-3.4922378096666664
23008,Ba6CdAg2(SnS4)4,-1.4301108559770115
23009,HfHg4(PCl3)2,-1.208792126282051
23010,XeF4,-0.8595150520000002
23011,PmNdTl2,-0.3917689160416664
23012,AcAl3,-0.3515896993750003
23013,Th2Al,-0.22872165333333308
23014,Rb2NaDyCl6,-2.464000085155172
23015,Na2Lu3Te4(IO4)3,-2.319410349504311
23016,SmAs,-1.51966437
23017,TaBRu,-0.6296637188888892
23018,ErSnRh,-0.9057349983333336
23019,LiZrIr2,-0.5846187733333332
23020,Ba3Sb2Se7,-1.445343760325521
23021,Sm3(CuGe)4,-0.6207811022727266
23022,SrIn2O4,-2.357273833095238
23023,Hf2Co3Si4,-0.7417752841666648
23024,Zr2PbC,-0.6594353250000005
23025,Nb3B2,-0.6315941196666671
23026,KNdGeS4,-1.5443016350714285
23027,HoVO3,-3.304395237500001
23028,DyInCu,-0.4137585600000004
23029,Sm(GeRh)2,-0.8944155710000004
23030,Cs3SbSe4,-1.126047398208513
23031,VPO4,-2.701056512222223
23032,CdNi3N,-0.13551883699999934
23033,ZnNiSb,-0.2955355966666667
23034,CsNaF3,-2.4110054513965515
23035,V2Ga5,-0.231246637500001
23036,HBr,-0.5185571687500001
23037,Na2ZnFeF7,-2.7902300280094043
23038,LiLu2Os,-0.322865154583333
23039,ErCdPd2,-0.7554834249999995
23040,Tb(NiP)2,-1.0172648813333338
23041,Sm2BiO2,-2.896740072000001
23042,Tb4Mg3Co2,-0.1568333511111114
23043,MnSnRu2,-0.11740963823275852
23044,Nd3Co,-0.06289689687500033
23045,LaGa2Ni,-0.6240376537499994
23046,Zr6Co16Ge7,-0.4699802267241388
23047,Gd3Al5O12,-3.654246178125001
23048,Rb4InSbCl12,-1.8067608805555553
23049,CaCrF5,-3.563615006071428
23050,Zr2Fe3Ge,-0.45230359416666605
23051,UBr4,-1.7630036239999995
23052,LaErS3,-2.448659237208334
23053,YbFeB4,-0.4612981473611117
23054,Eu3Sb4S9,-1.2516298744140624
23055,CsTm2Cl7,-2.6856333856264367
23056,Cr2CuS4,-0.921628730357143
23057,Rb(WO3)6,-2.2299660371000005
23058,ZrGa2,-0.5669717249999996
23059,CeMg(BO2)5,-3.0954221368137267
23060,Rb2ZrO3,-2.7503810175
23061,Ca3(AsO4)2,-2.70342215021978
23062,Co(SbO3)2,-1.814154787777778
23063,Sr4GaSi3,-0.4320717630208337
23064,Tb4GaSbS9,-1.8445713160416668
23065,PmH,-0.48882342625000064
23066,Tl2NiH12(SeO7)2,-1.268708231979167
23067,PmEuPt2,-0.9889432356250003
23068,AlP,-0.6097713516666659
23069,Cr5Se8,-0.8122932552884609
23070,Zr3AlFe8,-0.29227722916666704
23071,Li4HN,-0.470905378055555
23072,Cs2Bi4Se7,-0.9002934990206402
23073,Nb4Co4Si7,-0.6543869350000003
23074,Ba3YIrRuO9,-2.579212996111112
23075,Pb2CO4,-1.7201035996428575
23076,Ba3NdIr2O9,-2.4810817216666674
23077,CdPdF6,-1.9537252831249998
23078,Pr3(GeRu)2,-0.592935806785715
23079,Na6Nb8(PO7)5,-2.873113554832908
23080,Na3CrO4,-1.9636553174568965
23081,ErZrF7,-4.234818604166667
23082,U2Mn3Si5,-0.44155627587931007
23083,ThH10N4O17,-1.3593016796875004
23084,RbSc(MoO4)2,-2.5214149393750005
23085,Tb3GaO6,-3.5803619537499998
23086,CeGa8Pd3,-0.5548862154166664
23087,CaEuTl2,-0.44189038791666757
23088,V5Ge3,-0.37023930562499974
23089,Fe3NiAs4,-0.23842193624999997
23090,LuCdHg2,-0.3080002474999999
23091,RbLi2CdC2O6F,-2.190414137820513
23092,KCeSiS4,-1.6893971815000002
23093,ZrCu4Ag,-0.15022917277777795
23094,K2ZrSi2O7,-3.1896398148749996
23095,YbSbAu,-0.9362899333333333
23096,GaS,-0.9032418890624996
23097,DyNi3,-0.41487105083333375
23098,Li2NdIn,-0.3154612516666666
23099,Li4Be3P3IO12,-2.813743821449276
23100,Yb14AlSb11,-1.068488135961538
23101,ScInRh2,-0.8320638237500004
23102,Ba6Tm2Al4O15,-3.4308261240123454
23103,Dy2InNi2,-0.5285465100000003
23104,TcS2,-0.9547549454166671
23105,Nd4MnSe6O,-2.1952786943327944
23106,Pr5Si2Ge,-0.6186823043750005
23107,Nd(Sn3Ru2)2,-0.3380038709090911
23108,ThTl3F7,-3.146364116818182
23109,SbH36S4N11,-0.45789915543269244
23110,Ba3SrIr2O9,-2.328220128777778
23111,HoCoGe,-0.6705566266666665
23112,CeU4N5,-1.543701093
23113,RbMn6As7O24,-1.9138148975022697
23114,Tm2Si3Pd,-0.8623483947222225
23115,YH12(ClO2)3,-1.5590111712121213
23116,LiIn(WO4)2,-2.206050611527779
23117,Er4Ni13C4,-0.35670730047618937
23118,Te2O3F2,-1.8661573164285719
23119,TbAgPb,-0.41728273055555515
23120,CeGe,-0.7051468087499995
23121,TmMgPd,-0.700355598888889
23122,Ho3CuGeS7,-1.715230194322917
23123,MnZn(CrS2)4,-1.016734513780788
23124,CaAgO2,-1.9055686629166666
23125,CeAu2,-0.6778090733333334
23126,Cs2Li2GeO4,-2.105138015836526
23127,Nd2ZrSe5,-1.9832900339648436
23128,HfNbC2,-0.7274320824999982
23129,Nd3Ga5O12,-2.905533890875
23130,Ti5Sb3,-0.5631139933333333
23131,LuSnPd2,-0.9023845437500002
23132,Rb2SmBr5,-2.2074499584375005
23133,Gd2SCl4,-2.626767181160715
23134,BaLiBS3,-1.533896105729167
23135,MgZn2,-0.1330980316666667
23136,BaMn3(PO4)3,-2.7202427873049007
23137,TiTc2Sb,-0.400822310833334
23138,Y2Fe2Si2C,-0.6708366747619051
23139,YTl3,-0.25041744666666643
23140,In5AgS8,-0.7988963322619048
23141,CaAlSi,-0.3653890772222223
23142,RbBH4,-0.5076137944444449
23143,Ho2B6Os,-0.6715186466666654
23144,TaSb2,-0.27170470666666685
23145,Ca6Al43W4,-0.20954800084905723
23146,MnFePd6,-0.18150037724137924
23147,Na3H7Ru,-0.36602913587774305
23148,KAu(IO3)4,-0.9174807179444444
23149,LiCa2Ga,-0.27067599770833306
23150,Sm(SiPd)2,-0.923786063
23151,LuSnF7,-3.5684813158333335
23152,Ni10SnP3,-0.43199946369047587
23153,MgTe2,-0.859484225833333
23154,Th7Se12,-2.04231321305921
23155,HoCu2,-0.277145873333333
23156,TmMgTl,-0.2852635833333331
23157,LiGd2Ga,-0.32761710520833276
23158,KCd4As3,-0.21725000600000044
23159,La12Mn3(AlSe7)4,-1.8493982997748533
23160,Li3Yb3(TeO6)2,-2.3199230431250006
23161,NaSmSe2O7,-2.0759828839762933
23162,Cs2MnO4,-1.732191600184729
23163,Tb2(SO4)3,-2.6587835145220584
23164,KSrB5O9,-2.9590088748750007
23165,NaGdH2S2O9,-2.2653794531867812
23166,Zr(MoO4)2,-2.4660734954545465
23167,K2AgRhF6,-2.253376643766667
23168,KAuF4,-2.0749332871666666
23169,Ba3(SiAs2)2,-0.8071117705555556
23170,Sr3Ag2,-0.267407286
23171,RbScO2,-3.000575480625
23172,Dy(SiNi)2,-0.8289005300000006
23173,BaGa4O7,-2.48627341125
23174,Ce2Ga3Cu,-0.48791921041666636
23175,CeGa2,-0.5906536066666662
23176,Ba2YCoO5,-2.8161871968518537
23177,CsMoP2O7,-2.5943265038270638
23178,Ti2V(PO4)3,-2.9322468442592586
23179,Rb2Mo3SO13,-2.060596183717106
23180,SnHg6(P2Cl3)2,-0.6699232871078431
23181,Sr11(OsO6)4,-2.5865863941880343
23182,B3Pb3NO10,-2.025717517647059
23183,Cs3GaAs2,-0.462518822715517
23184,CsDy2Ag3Te5,-1.0713862211755478
23185,UNiP2,-0.8013715783333323
23186,Gd2Mo(SeO4)3,-2.2390246295572913
23187,PrHoIn2,-0.4616953262500001
23188,Ti4MnBi2,-0.26730328303776624
23189,Be2CoNi,-0.4186235037500001
23190,Mn,0.0
23191,Zr6FeI14,-1.183111191428571
23192,TmCdAu,-0.638503824444444
23193,Cs3Au2Br11,-1.2014851575808192
23194,CaCdPb,-0.3865924066666666
23195,Sr(InS2)2,-1.3331805904166667
23196,YbZn,-0.326506765
23197,Rb3V5O14,-2.4097787819318186
23198,PrSb2Pd,-0.9478131624999993
23199,Rb2NbAgS4,-1.2655720555208338
23200,Ti5(PO5)4,-3.1329616113793106
23201,Er6Al43V4,-0.30805528179245356
23202,Rb2S5,-0.9559670736607144
23203,Rb3B(SeO4)3,-1.7246000116419964
23204,Nb3NiS6,-1.281837638875001
23205,Tb2CoTe2(SO7)2,-2.3408658052976183
23206,Sm(Co2B)6,-0.3477767657894737
23207,Rb4TlSbCl12,-1.7073776779629628
23208,La3RuBr3,-1.589783522857142
23209,Ba4Cu11(Te4S)2,-0.8303374642500007
23210,RbLiZnS2,-1.3274816494166664
23211,LaTb2RuO7,-3.1915434813636367
23212,NaCeP2O7,-3.061273042338035
23213,Y10Mn13C18,-0.3062966468236615
23214,Ba2SiS4,-1.8977026842857139
23215,K2Re3C2Se5N2,-0.6882853759084802
23216,NaCa10(PO4)7,-3.286613334780109
23217,Mg2SiSe4,-1.1829782645535718
23218,Ce(FeAs3)4,-0.4136211855882358
23219,InBi,-0.0011647224999999928
23220,TmInNi,-0.499679147777777
23221,Ba2Si3Ag,-0.43692317861111124
23222,HoAgSn,-0.5816707088888892
23223,LiTaSiO5,-3.195731487604167
23224,SrZnAsHO5,-2.170677567129631
23225,TaIr,-0.5997371583333345
23226,Cs5Si3AgO9,-2.505492175073436
23227,TePdI,-0.5872712249999997
23228,Pa2BiTe,-0.46037471250000017
23229,YbDyZn2,-0.3389275825000002
23230,K3Na(RuO4)2,-1.7131048221822656
23231,UCrB4,-0.5745296423611114
23232,TmCd3,-0.2480141004166665
23233,HfTc2W,-0.34796032750000094
23234,ScTeRh,-1.2182774083333332
23235,Tl2Pt3,-0.10376830833333343
23236,Re3Te4Cl5,-0.8538963773958331
23237,NaNd2Se3,-1.9642513555971621
23238,Zr3Tl,-0.11943823083333438
23239,Ga3Sb7(S4Cl7)2,-1.1208490142968754
23240,Nd6Al43V4,-0.30614353113207604
23241,DySi3Ni5,-0.6919717852777786
23242,Hf3(NiGe)4,-0.6675136600000012
23243,Sr2V2OF10,-3.520557631055557
23244,KBi6BrO9,-1.68996106532353
23245,KPH3NO3,-1.7194887370925922
23246,Cs2CoSiO4,-2.3047774557327596
23247,TiP2O7,-2.96156562825
23248,VF4,-3.0074946069999995
23249,Na4Al3Ge3ClO12,-2.62071274766117
23250,DyCuAs2,-0.8195739587499995
23251,Pr3Sn13Ir4,-0.509311968499999
23252,K2MnH4(I2O7)2,-1.27992845015724
23253,CeAlSi,-0.5623052366666652
23254,Tm2FeSi2,-0.6984571266666663
23255,Tm(BRu)4,-0.5013795559259253
23256,RbPr(MoO4)2,-2.5227089010416677
23257,Ca(LuS2)2,-2.383799856071429
23258,PuBr3,-1.9686897918749997
23259,NaNbO2,-2.527779317887931
23260,Cs2U(PtS2)3,-1.2160702549676727
23261,TmGa3Ru,-0.5801425928333335
23262,LiNi3P2,-0.6108151677380953
23263,Ba2LiIO6,-2.235184155833333
23264,Dy(Al5Fe)2,-0.35582242153846155
23265,Ho2Mn3Si5,-0.5932865216293102
23266,Sm2MgGe2,-0.7761856209999998
23267,Tl2(ReS2)3,-0.7840707827651517
23268,ErNiSn2,-0.5548256083333332
23269,MgGaPd2,-0.7180220018749996
23270,U8CrSe17,-1.4247086142247598
23271,Na3U6TiF30,-3.8119932224497135
23272,Ba2Re6S11,-1.1719795547039464
23273,Ho3MnB7,-0.6276976615543375
23274,AsBr3,-0.8630746506250002
23275,Ga3Ni5,-0.37565789031249963
23276,Sr2CuBrO2,-2.4121050568055558
23277,K2PbO2,-1.5445868726999996
23278,Ba2MgMoO6,-2.8356779519999997
23279,CaNiGe2,-0.5323925650000003
23280,KY2F7,-4.188370080383334
23281,RbCrO2,-2.0000403843750005
23282,NaSmHg2,-0.3616560878879309
23283,Ce5Pb3,-0.33192740562499967
23284,KYF4,-4.005186231796297
23285,EuC6,-0.06156105285714172
23286,Ba3DyRu2O9,-2.6337573856666676
23287,NdSbPt,-1.1730342316666669
23288,KZrF5,-3.807335949595238
23289,PrBi2BrO4,-2.3453180490625005
23290,LuZrRu2,-0.5970915174999991
23291,Ti(NbS2)4,-1.5266392764102572
23292,Yb7MgPt4,-0.9369392141666667
23293,Eu2H6Ir,-0.5568773544444446
23294,SrLiBi,-0.8271324483333334
23295,YNiBi,-0.6724000422222218
23296,CsScI3,-1.5470705285862068
23297,BaLa2Te5O14,-2.3209403759090903
23298,Ba2Zn7F18,-2.9613319694444447
23299,PrAlPt,-1.0295247999999997
23300,Ce2SeF4,-3.8109972003348216
23301,Mn2P12W,-0.328374184057472
23302,ZrAsPd,-0.9189908033333325
23303,SrTeO3,-2.3792413315000016
23304,BaWO4,-2.7289869
23305,CsY2CuTe4,-1.3239790520330459
23306,K2Ge2S5,-1.0452247604583336
23307,DyCl3,-2.71274214625
23308,Rb2Sn2Hg3S8,-0.7941468349999998
23309,Ga2Au,-0.23811289833333285
23310,ErGa5Co,-0.46537750035714254
23311,Nb9AsO25,-2.9062014639999996
23312,Tb2Si5Ru3,-0.8169627084999987
23313,LiHfRh2,-0.7297507983333329
23314,KGaBr4,-1.57346585175
23315,EuHg3,-0.4159040649999999
23316,Sm(SiAg)2,-0.39804240566666704
23317,KH2(IO3)3,-1.0764174808666676
23318,Gd2NiRu,-0.3279984362500006
23319,Sm3(GeRh)2,-0.8771616924999991
23320,GdGePt,-1.1089714208333337
23321,BaP2(XeF5)4,-2.1605484217283952
23322,Cs2Cu2Sb2Se5,-0.7618200488709835
23323,PmMgAg2,-0.30151272270833296
23324,FeNi2BO5,-1.834982389074074
23325,BaFe2P2O7F2,-2.7900836086904763
23326,K2Zn3S4,-1.178432215944444
23327,Ba2UFeO6,-3.109769587
23328,Rb2LiMoF6,-2.990693454333333
23329,Cs3BAs2,-0.3478052629932951
23330,PrAs2Pd3,-0.8316476697222228
23331,SbPS4,-0.5989174450000002
23332,AcLaCd2,-0.29347191187499977
23333,Yb2In8Ir,-0.3321044790909091
23334,Nb3(CuSe3)2,-0.9548486812784088
23335,Rb2MnV2O7,-2.388964201285919
23336,BaU2Te5,-1.2208972306250008
23337,Cs(AsRu)2,-0.39449826558620626
23338,U(BRu)4,-0.42350392268518533
23339,Th3Si2,-0.6326161719999988
23340,K2MgO2,-1.9796745647000002
23341,La3Co29(Si2B5)2,-0.38850888253623256
23342,ThIr5,-0.4457132883333337
23343,Tc3Ir,-0.22833744000000067
23344,Yb2MgTl,-0.28544487083333325
23345,CaSc2O4,-3.7836882207142852
23346,K4Ba2SnSb4,-0.7051957288181818
23347,HfBr4,-1.815229524
23348,RbTlS2,-0.8817335623958331
23349,GdGa3Ru,-0.5821238994999997
23350,SrCaAl2(SiN3)2,-1.4504054163888884
23351,Ba13Dy8Zn4Pt4O37,-2.836128201287879
23352,BaHClO,-2.4074004149999997
23353,CeSiNi,-0.7209699183333337
23354,Sr2ScOsO6,-2.894614975333333
23355,Er2Si3Rh,-0.9263321375000011
23356,Ho13Zn58,-0.32134594654929605
23357,Ce2AlGe6,-0.43777474499999947
23358,ThHg3,-0.23715884124999986
23359,YbSnPd2,-0.8193814412499996
23360,Zn13Fe,-0.030846618571428612
23361,K2CuS(ClO2)2,-1.8940284294125
23362,La(SbO3)3,-2.311320759615385
23363,K5Ti3F14,-3.4329668636363633
23364,CrP4,-0.28152649566666665
23365,K3LiSiO4,-2.443237471787037
23366,K2SO4,-2.277885091660714
23367,Sr7Mn4O15,-2.673967800130416
23368,Pr7Pd3,-0.4829835695
23369,HoIO,-3.0975885816666664
23370,Rb4B2S4O17,-2.25268065095679
23371,EuZn2,-0.2981924599999998
23372,Na3Ce(PO4)2,-2.938773489022988
23373,Cs2SnO3,-1.9013199843103443
23374,CsMoO2F3,-2.5999907143472916
23375,MgCu4Sn,-0.1262149741666665
23376,Ac3In,-0.16014600437500004
23377,Sm2(Ga3Ru)3,-0.5442416094642856
23378,ErMg3,-0.05571182499999994
23379,Cu(PtS2)2,-0.6114334439285705
23380,TbB2Os,-0.5545232120833328
23381,KNd9(Si3O13)2,-3.629572737928573
23382,Hf3(VGa2)2,-0.4142057043055563
23383,CsAlO2,-2.849798509482759
23384,NiMoP2,-0.5754818516666669
23385,CsPr2Ag3Te5,-1.1028775320846393
23386,CeCdPd,-0.5823369549999993
23387,ErHg3,-0.32562209750000015
23388,U2Co3Si,-0.47699220583333357
23389,Tb3BBr3,-1.5179397980952376
23390,PmTlAg2,-0.25730251604166643
23391,Ba2TbPaO6,-3.73444127
23392,WO2,-2.036442338333334
23393,KRb2AsF6,-2.7865644837999994
23394,Gd2ReC2,-0.36828543449999956
23395,NdBe13,-0.1621179571428577
23396,MnI2,-0.7063810159770121
23397,ZrGaCu,-0.43727692249999944
23398,Na2H6PtO6,-1.3818836642068963
23399,KLaMnWO6,-2.688559312593103
23400,Y3Ir,-0.5688209143750012
23401,K2Zn3(P2O7)2,-2.533694398449275
23402,Yb(SiRh)2,-1.010678879999999
23403,Ni2RhS4,-0.7012262732142845
23404,YbAlPt,-1.0594248458333333
23405,CrTe4Au,-0.4268378216666662
23406,TbNi,-0.4368924920833326
23407,Nd3Re2O9,-3.018384850357144
23408,Cs2Zr(SiO3)3,-3.2239486793908054
23409,Hg3(PO4)2,-1.801402662628205
23410,Ba3SiS5,-2.0047979600694443
23411,Tm5Ir3,-0.8832276219791666
23412,Sm6InFe13,-0.0686312427499999
23413,Dy2Al6Si4Pt,-0.5181161599999998
23414,OsC3I2O3,-0.9233379922222219
23415,Sr3(SnIr)4,-0.5123100254545456
23416,Eu16Sb11,-1.1197432238888883
23417,Eu2MnSbO7,-2.6182728752664572
23418,Y4RuBr5,-1.6848975181666674
23419,LaSiPt3,-1.092319165
23420,Na(GeP)3,-0.16984437022167448
23421,AlH18C3(N3F2)3,-1.0762706077364865
23422,RbMnN2,-0.45322251151400916
23423,NdIn2Rh,-0.6023377725000003
23424,K2EuCl5,-2.327361848875
23425,Dy3TaO7,-3.864780575
23426,Cu2Hg2SF6,-1.5714808257386361
23427,Cs2TlMoF6,-2.76501742941954
23428,BaCeN2,-1.2290160712500002
23429,TmSnPt,-1.0841978016666662
23430,KCd6P7O24,-2.397280948456141
23431,Yb3Pd4,-0.8256630007142854
23432,Hf4GeSb7,-0.5321183820833338
23433,AsIrS,-0.7447879318750003
23434,NaNpCO5,-2.650620688162716
23435,YMgHg2,-0.4647696341666667
23436,Er4Ge6Rh7,-0.9542503658823525
23437,K4BeP2,-0.37248571052380947
23438,Cs4InSbCl12,-1.8379868345402295
23439,K(ThTe3)2,-1.380262725888888
23440,Gd(CuO2)2,-2.0454012185714285
23441,Pr5Te7WCl3O23,-2.3826578939743603
23442,P2Pt,-0.6830153388888883
23443,GdZnAsO,-1.9858514437499997
23444,Be(PO3)2,-2.7806093546296293
23445,Pm2MgSi,-0.2718712362499991
23446,NaNd(GaSe2)4,-1.1834587664501228
23447,Sc,0.0
23448,LuAlFe,-0.34959481499999967
23449,Li3InCl6,-1.907499076833333
23450,Cs3SbS3,-1.187009064381158
23451,CrNiPO5,-2.2921978041666673
23452,CdPtF6,-2.009488778125
23453,RbYSeCl2O3,-2.4207710633138024
23454,Y3Ge5,-0.7211823512500004
23455,Mg149Ga,-0.02906231491666669
23456,MnGa(CuSe2)2,-0.6350499368507538
23457,Li6Ca17Hg9,-0.3577293103125001
23458,Ag2Sn(S2O7)3,-1.6175555754583348
23459,CaCd(CO3)2,-2.2260879990000007
23460,Be2V,-0.21818012416666713
23461,GdAsS,-1.737505793541666
23462,ThZn4,-0.28714623400000006
23463,YbBiAu,-0.7230516483333336
23464,AsBrOF8,-1.833715732045455
23465,Cs2Al2Sb2O7,-2.515293009297082
23466,Eu2Al6Si3Au2,-0.44717554230769213
23467,Ta2V3Si,-0.3250157841666675
23468,LiDySe2,-1.9296900745052081
23469,NaAlCl4,-2.0679174710919543
23470,NbFe2,-0.1348024866666672
23471,Rb3Nb2AsSe11,-1.0388949484283083
23472,LiYb2InGe2,-0.6082116918055558
23473,P4N3Cl11,-1.0241457329629624
23474,Ba3HfTa4O15,-3.528675129565218
23475,PrOs2,-0.051516029166666755
23476,Tm2(CN2)3,-0.9909867639393933
23477,YPPt,-1.3521641366666657
23478,CsHoCdTe3,-1.2846709696551724
23479,La(Al2Fe)4,-0.3911974557692315
23480,AcH2,-0.6779552508333335
23481,Yb5Pt4,-1.0623586697222223
23482,Cs2SnBr6,-1.6124633939846744
23483,SiNi2,-0.5257937291666662
23484,Nb4Pb3(O6F)2,-2.7365469055952394
23485,Zr(PO3)4,-2.8506610536519608
23486,K4ZnO3,-1.4979050911875005
23487,Dy2Sn2O7,-3.0293946804545446
23488,BaTe,-2.003553355
23489,Sc2IrRu,-0.844101693749999
23490,CsZr2(PO4)3,-3.1811166959961685
23491,Nd2W2O9,-2.9255945428846157
23492,FeF2,-2.592161203333333
23493,Ti2CoTc,-0.5117763529166677
23494,Li2ZnSn,-0.3175975679166667
23495,Pm2CdSn,-0.5327005849999997
23496,K3LuCl6,-2.4320014298999997
23497,DyInPd2,-0.8226592825000001
23498,GdInPt2,-0.9353069949999995
23499,CsTaN2,-1.0905357794827584
23500,LiMg,-0.05998573166666654
23501,K6Se2O9,-1.7303568813345596
23502,Rb3TaS4,-1.5291286300000002
23503,GaBPbO4,-2.2996357548809527
23504,Y15Ni32,-0.4219878904255322
23505,Yb6Al43Cr4,-0.21178915603773632
23506,FeAs(H2O3)2,-1.4908513722916663
23507,MnNb2O6,-2.8716737219923374
23508,MnGa4,-0.17623694758620728
23509,ZrV2O7,-2.8172527997500003
23510,Ca6Cr2HN6,-1.0835266523333322
23511,VFeSb,-0.2752233499999998
23512,NbTl2PO6,-2.4212534456666672
23513,MgSb3XeF23,-2.309665467053572
23514,Ti3Sb,-0.42777665499999973
23515,As,0.0
23516,EuAl4,-0.28089503500000035
23517,Dy6Se11,-1.972530204457721
23518,TbInPd,-0.8153631811111113
23519,LaPb3,-0.447221816249999
23520,La7(RuO6)3,-3.0157259658035724
23521,ScAg4,-0.19898818633333307
23522,Sm2(SeO3)3,-2.318048796216519
23523,Ta2TcW,-0.28401358250000186
23524,BaTh2S5,-2.383805913828125
23525,HoAlSi,-0.5944652916666667
23526,ErUTe6,-1.02588092375
23527,Eu3B2Pt7,-0.8305582836111114
23528,RbMgCO3F,-2.6137789564285714
23529,Li2PrIn,-0.3179817054166669
23530,CeMgGa,-0.3652419341666666